/*--------------------------------*- C++ -*----------------------------------*\
  =========                 |
  \\      /  F ield         | OpenFOAM: The Open Source CFD Toolbox
   \\    /   O peration     | Website:  https://openfoam.org
    \\  /    A nd           | Version:  6
     \\/     M anipulation  |
\*---------------------------------------------------------------------------*/
FoamFile
{
    version     2.0;
    format      ascii;
    class       volScalarField;
    location    "0";
    object      y;
}
// * * * * * * * * * * * * * * * * * * * * * * * * * * * * * * * * * * * * * //

dimensions      [0 0 0 0 0 0 0];

internalField   nonuniform List<scalar> 
1024
(
-0.00105064
-0.00100477
-0.000936743
-0.000859995
-0.000787374
-0.000730666
-0.000697814
-0.00068929
-0.000992349
-0.000956029
-0.000901636
-0.000840126
-0.000781983
-0.00073667
-0.000710523
-0.00070391
-0.00081621
-0.000806948
-0.000788249
-0.000765899
-0.000744525
-0.000727286
-0.000715694
-0.000709356
-0.000597116
-0.000601944
-0.000607016
-0.000612876
-0.000618926
-0.000623559
-0.000625076
-0.000623167
-0.000359674
-0.000366489
-0.000380333
-0.000398993
-0.000419031
-0.00043654
-0.00044822
-0.000452924
-0.000124454
-0.000131625
-0.000149055
-0.000173781
-0.000201339
-0.000226848
-0.000245945
-0.000255846
6.30461e-05
5.55397e-05
3.7304e-05
1.12802e-05
-1.82039e-05
-4.6336e-05
-6.85188e-05
-8.09843e-05
0.000172586
0.000164737
0.000147755
0.000124266
9.78009e-05
7.23286e-05
5.18133e-05
3.99001e-05
0.000202165
0.000194508
0.000180625
0.000162631
0.000142939
0.000124229
0.000109208
0.000100457
0.000175423
0.000169042
0.000159755
0.000148976
0.000137953
0.000127983
0.000120311
0.000116024
0.000127808
0.000123875
0.000119899
0.000116474
0.000113844
0.000112151
0.000111391
0.000111316
8.94896e-05
8.8696e-05
8.96559e-05
9.21679e-05
9.57973e-05
9.99532e-05
0.000103875
0.000106551
7.32357e-05
7.54468e-05
7.98744e-05
8.58198e-05
9.25673e-05
9.92516e-05
0.000104889
0.000108379
7.20545e-05
7.60688e-05
8.16533e-05
8.81589e-05
9.49275e-05
0.000101153
0.000105997
0.000108716
6.76144e-05
7.07316e-05
7.46235e-05
7.89176e-05
8.31686e-05
8.68424e-05
8.94373e-05
9.06596e-05
3.1003e-05
3.18885e-05
3.30305e-05
3.429e-05
3.55031e-05
3.64944e-05
3.71158e-05
3.7322e-05
-0.0010406
-0.000998908
-0.00093596
-0.000864371
-0.000796327
-0.000742925
-0.000711641
-0.000702848
-0.000984832
-0.000951974
-0.000901917
-0.00084482
-0.00079053
-0.000747897
-0.000722873
-0.000715766
-0.000816073
-0.000806962
-0.000789166
-0.000767849
-0.000747281
-0.000730437
-0.000718793
-0.000712137
-0.000597529
-0.000601639
-0.000606352
-0.000611953
-0.00061775
-0.000622142
-0.000623441
-0.000621387
-0.00035727
-0.000364131
-0.000377989
-0.00039665
-0.000416722
-0.000434321
-0.0004461
-0.000450831
-0.000121059
-0.000128708
-0.000146366
-0.00017123
-0.000198939
-0.000224645
-0.000243971
-0.000254085
6.57509e-05
5.77243e-05
3.92735e-05
1.31306e-05
-1.64785e-05
-4.47764e-05
-6.71844e-05
-7.99333e-05
0.000173659
0.000165512
0.000148463
0.000124961
9.8472e-05
7.29415e-05
5.23021e-05
4.01756e-05
0.000201575
0.000193956
0.000180189
0.0001623
0.000142696
0.000124048
0.000109042
0.000100231
0.000173901
0.000167837
0.000158786
0.000148183
0.000137311
0.000127479
0.000119929
0.000115734
0.00012641
0.000122898
0.000119165
0.000115902
0.000113408
0.000111849
0.000111239
0.000111335
8.91069e-05
8.86378e-05
8.97293e-05
9.23046e-05
9.59794e-05
0.000100187
0.000104195
0.000107014
7.42629e-05
7.65375e-05
8.09105e-05
8.67675e-05
9.34168e-05
0.000100013
0.000105604
0.000109122
7.4098e-05
7.78637e-05
8.32252e-05
8.95133e-05
9.60618e-05
0.00010208
0.000106755
0.000109378
6.9097e-05
7.19354e-05
7.56451e-05
7.9781e-05
8.38765e-05
8.73993e-05
8.98533e-05
9.09524e-05
3.13198e-05
3.21248e-05
3.32279e-05
3.44605e-05
3.56489e-05
3.66131e-05
3.71993e-05
3.73561e-05
-0.00103205
-0.000993367
-0.000934494
-0.00086705
-0.000802469
-0.000751297
-0.000720823
-0.000711737
-0.00097749
-0.000947084
-0.000900407
-0.000846753
-0.000795314
-0.000754469
-0.000730013
-0.000722578
-0.000811748
-0.000803239
-0.000786635
-0.000766669
-0.000747296
-0.000731294
-0.000720059
-0.000713523
-0.00059452
-0.000598567
-0.000603396
-0.000609217
-0.000615283
-0.000619965
-0.000621537
-0.000619701
-0.000354502
-0.000361509
-0.00037544
-0.000394158
-0.000414317
-0.00043205
-0.000443995
-0.000448851
-0.000119004
-0.000126905
-0.00014467
-0.000169567
-0.00019731
-0.000223081
-0.000242503
-0.00025271
6.6698e-05
5.84862e-05
3.99737e-05
1.38356e-05
-1.57597e-05
-4.4064e-05
-6.65111e-05
-7.93195e-05
0.000173601
0.000165439
0.000148432
0.000124998
9.85743e-05
7.30902e-05
5.24638e-05
4.03189e-05
0.000201055
0.000193592
0.000179967
0.000162196
0.000142688
0.000124116
0.000109157
0.000100364
0.000173613
0.000167793
0.000158922
0.000148437
0.000137648
0.000127879
0.000120379
0.000116221
0.000126878
0.000123581
0.00011998
0.000116777
0.000114307
0.00011276
0.000112165
0.000112288
9.04804e-05
9.00995e-05
9.12063e-05
9.37426e-05
9.73508e-05
0.000101489
0.000105449
0.000108254
7.62441e-05
7.84448e-05
8.26986e-05
8.84094e-05
9.49001e-05
0.000101345
0.000106816
0.000110265
7.59695e-05
7.9547e-05
8.47112e-05
9.07997e-05
9.71494e-05
0.000102982
0.000107505
0.000110034
6.9984e-05
7.26723e-05
7.6239e-05
8.02396e-05
8.42062e-05
8.76117e-05
8.99685e-05
9.10067e-05
3.14125e-05
3.21782e-05
3.32442e-05
3.44432e-05
3.56011e-05
3.65386e-05
3.71027e-05
3.72453e-05
-0.00102306
-0.000985831
-0.000929265
-0.000864351
-0.00080205
-0.000752565
-0.000723005
-0.00071414
-0.000969043
-0.000939811
-0.000895025
-0.000843453
-0.000793897
-0.000754455
-0.00073077
-0.000723546
-0.000805136
-0.000797229
-0.000781641
-0.000762843
-0.00074458
-0.000729486
-0.000718873
-0.000712678
-0.000590196
-0.000594466
-0.000599667
-0.000605937
-0.00061246
-0.000617564
-0.00061949
-0.000617893
-0.000352166
-0.000359277
-0.000373311
-0.000392135
-0.000412402
-0.000430246
-0.000442299
-0.00044723
-0.000118213
-0.000126174
-0.000143945
-0.000168814
-0.000196516
-0.000222249
-0.000241647
-0.000251841
6.65288e-05
5.83058e-05
3.98306e-05
1.37664e-05
-1.57394e-05
-4.3954e-05
-6.63238e-05
-7.90808e-05
0.000173224
0.000165112
0.000148178
0.00012483
9.84958e-05
7.30965e-05
5.25423e-05
4.04447e-05
0.000201173
0.000193806
0.000180271
0.000162574
0.000143122
0.000124592
0.000109662
0.000100885
0.000174622
0.000168903
0.000160103
0.00014965
0.00013886
0.00012907
0.000121541
0.00011736
0.00012875
0.000125511
0.000121927
0.000118692
0.000116153
0.000114519
0.000113842
0.000113908
9.28177e-05
9.24241e-05
9.34752e-05
9.59114e-05
9.93898e-05
0.000103389
0.000107225
0.000109949
7.84449e-05
8.05651e-05
8.46996e-05
9.02609e-05
9.65852e-05
0.000102865
0.000108193
0.000111551
7.74326e-05
8.08991e-05
8.59229e-05
9.18568e-05
9.80483e-05
0.000103733
0.000108133
0.000110588
7.04111e-05
7.30185e-05
7.64847e-05
8.0381e-05
8.42481e-05
8.75677e-05
8.98626e-05
9.08728e-05
3.13608e-05
3.21018e-05
3.31353e-05
3.43013e-05
3.54299e-05
3.63452e-05
3.68974e-05
3.70396e-05
-0.00101218
-0.000975803
-0.000920693
-0.000857512
-0.000796996
-0.000749185
-0.000721017
-0.000713027
-0.000958852
-0.000930342
-0.00088676
-0.000836609
-0.000788516
-0.000750454
-0.000727931
-0.000721457
-0.000797381
-0.000789982
-0.000775214
-0.000757395
-0.000740132
-0.000725956
-0.00071608
-0.000710333
-0.000585547
-0.000590059
-0.000595646
-0.000602378
-0.000609364
-0.000614868
-0.000617083
-0.000615632
-0.000350196
-0.000357371
-0.000371496
-0.000390414
-0.000410759
-0.000428648
-0.000440709
-0.000445621
-0.000118106
-0.00012606
-0.000143801
-0.000168611
-0.000196226
-0.000221853
-0.000241142
-0.000251254
6.57794e-05
5.75961e-05
3.91873e-05
1.3219e-05
-1.61675e-05
-4.42496e-05
-6.6492e-05
-7.91597e-05
0.000172666
0.000164614
0.000147752
0.000124488
9.82435e-05
7.29346e-05
5.24611e-05
4.04165e-05
0.000201579
0.000194276
0.000180799
0.000163146
0.000143723
0.000125207
0.00011028
0.000101499
0.00017624
0.000170564
0.000161786
0.00015132
0.000140483
0.000130626
0.000123023
0.000118787
0.00013128
0.000128044
0.000124429
0.000121117
0.000118463
0.000116694
0.00011589
0.00011587
9.55972e-05
9.51616e-05
9.6129e-05
9.84364e-05
0.000101753
0.00010558
0.000109263
0.000111888
8.07339e-05
8.27785e-05
8.67971e-05
9.22066e-05
9.8358e-05
0.000104464
0.000109643
0.000112906
7.87018e-05
8.20851e-05
8.69956e-05
9.2797e-05
9.88491e-05
0.000104401
0.000108691
0.000111078
7.06099e-05
7.31591e-05
7.65477e-05
8.03609e-05
8.41486e-05
8.74008e-05
8.96481e-05
9.06359e-05
3.12246e-05
3.19468e-05
3.29535e-05
3.4092e-05
3.51966e-05
3.60947e-05
3.66393e-05
3.67834e-05
-0.000998902
-0.000963434
-0.000909821
-0.000848536
-0.000790195
-0.000744743
-0.000718973
-0.000712913
-0.000946682
-0.000918939
-0.000876582
-0.00082797
-0.00078164
-0.000745499
-0.000724948
-0.000720103
-0.000788965
-0.000781995
-0.000767952
-0.000751061
-0.000734839
-0.000721728
-0.000712805
-0.000707679
-0.000581073
-0.000585724
-0.000591563
-0.000598615
-0.000605928
-0.000611699
-0.000614037
-0.000612528
-0.000348658
-0.000355852
-0.000369982
-0.000388877
-0.000409151
-0.000426905
-0.000438759
-0.000443438
-0.000118543
-0.000126492
-0.000144173
-0.000168858
-0.000196288
-0.000221678
-0.000240703
-0.000250592
6.44761e-05
5.63076e-05
3.79587e-05
1.21123e-05
-1.70999e-05
-4.49744e-05
-6.70088e-05
-7.95252e-05
0.000171666
0.000163648
0.000146838
0.000123659
9.75252e-05
7.23336e-05
5.19601e-05
3.99691e-05
0.000201747
0.000194495
0.000181058
0.000163439
0.000144039
0.000125529
0.000110583
0.000101763
0.000177842
0.000172213
0.000163447
0.000152952
0.000142048
0.000132094
0.00012438
0.000120046
0.000133953
0.000130735
0.000127088
0.000123683
0.000120885
0.000118947
0.000117978
0.000117841
9.85726e-05
9.81138e-05
9.90033e-05
0.000101165
0.00010429
0.00010791
0.00011141
0.000113921
8.3179e-05
8.51633e-05
8.9071e-05
9.43147e-05
0.000100266
0.000106166
0.000111169
0.000114327
8.00329e-05
8.33391e-05
8.81395e-05
9.38024e-05
9.97011e-05
0.000105102
0.000109263
0.000111565
7.07662e-05
7.32555e-05
7.65702e-05
8.03063e-05
8.40201e-05
8.72074e-05
8.94048e-05
9.03622e-05
3.10425e-05
3.17441e-05
3.27262e-05
3.38431e-05
3.49307e-05
3.58179e-05
3.63593e-05
3.65072e-05
-0.000983413
-0.000949193
-0.00089771
-0.000839276
-0.000784393
-0.000742851
-0.000721257
-0.000718951
-0.000932626
-0.000905871
-0.000865235
-0.00081897
-0.000775512
-0.000742647
-0.000725632
-0.000723988
-0.000780606
-0.000773895
-0.000760473
-0.000744522
-0.000729465
-0.000717651
-0.000709986
-0.000705635
-0.000577383
-0.000581895
-0.000587659
-0.000594683
-0.000601964
-0.000607651
-0.000609755
-0.000607792
-0.000347694
-0.000354782
-0.000368719
-0.00038733
-0.000407231
-0.000424516
-0.000435796
-0.000439937
-0.000119516
-0.000127494
-0.000145065
-0.000169494
-0.000196549
-0.000221468
-0.000239961
-0.000249394
6.25099e-05
5.4225e-05
3.58918e-05
1.0213e-05
-1.87177e-05
-4.62369e-05
-6.78965e-05
-8.01228e-05
0.000169895
0.00016176
0.000144925
0.000121832
9.58615e-05
7.08682e-05
5.06723e-05
3.87744e-05
0.000201177
0.000193873
0.000180416
0.000162817
0.000143458
0.000124983
0.00011003
0.000101144
0.000178894
0.000173295
0.000164527
0.000153993
0.000143017
0.00013296
0.000125107
0.000120624
0.000136354
0.000133218
0.000129571
0.00012607
0.000123112
0.000120975
0.000119799
0.0001195
0.000101557
0.000101181
0.000102045
0.000104063
0.000106964
0.00011033
0.000113598
0.000115965
8.58508e-05
8.7875e-05
9.17158e-05
9.6782e-05
0.000102483
0.00010811
0.000112873
0.000115893
8.16854e-05
8.4967e-05
8.96696e-05
9.51661e-05
0.000100851
0.000106019
0.000109967
0.000112124
7.1059e-05
7.3476e-05
7.67067e-05
8.03524e-05
8.39698e-05
8.70611e-05
8.91726e-05
9.00662e-05
3.08331e-05
3.1492e-05
3.2443e-05
3.35419e-05
3.46206e-05
3.55066e-05
3.60544e-05
3.62127e-05
-0.000968345
-0.000935769
-0.000886848
-0.000832023
-0.000781544
-0.000744881
-0.00072852
-0.000731626
-0.000919007
-0.000893474
-0.000854956
-0.000811763
-0.000772082
-0.000743409
-0.000730824
-0.000733509
-0.000774802
-0.000767923
-0.000754845
-0.000739537
-0.000725329
-0.000714494
-0.000707656
-0.000703167
-0.000575624
-0.000579582
-0.000584896
-0.000591417
-0.000598149
-0.00060326
-0.000604637
-0.000601533
-0.00034722
-0.000354098
-0.00036771
-0.000385859
-0.000405199
-0.000421849
-0.000432461
-0.000436096
-0.000120515
-0.000128619
-0.000146088
-0.000170212
-0.000196821
-0.000221197
-0.000239128
-0.000248202
6.04937e-05
5.18769e-05
3.34952e-05
7.98648e-06
-2.06256e-05
-4.77364e-05
-6.89877e-05
-8.10018e-05
0.000167796
0.000159316
0.000142392
0.000119381
9.36044e-05
6.88605e-05
4.88832e-05
3.70416e-05
0.000199953
0.000192453
0.000178947
0.000161376
0.00014209
0.000123699
0.000108785
9.98431e-05
0.000179085
0.000173504
0.000164753
0.000154204
0.000143192
0.000133074
0.000125125
0.00012054
0.000137889
0.000134942
0.000131352
0.000127794
0.000124707
0.000122401
0.000121051
0.000120648
0.000103872
0.000103745
0.000104653
0.000106563
0.000109263
0.000112386
0.000115434
0.0001177
8.8211e-05
9.04309e-05
9.42438e-05
9.91415e-05
0.000104585
0.000109917
0.000114422
0.000117315
8.34741e-05
8.67955e-05
9.13758e-05
9.6661e-05
0.000102071
0.000106936
0.000110606
0.000112597
7.15535e-05
7.38493e-05
7.69628e-05
8.04862e-05
8.39712e-05
8.69276e-05
8.89159e-05
8.97231e-05
3.06392e-05
3.12098e-05
3.21272e-05
3.32146e-05
3.42946e-05
3.51914e-05
3.57543e-05
3.59177e-05
)
;

boundaryField
{
    inlet
    {
        type            zeroGradient;
    }
    outlet
    {
        type            fixedValue;
        value           uniform 0;
    }
    walls
    {
        type            zeroGradient;
    }
}


// ************************************************************************* //
