/*--------------------------------*- C++ -*----------------------------------*\
  =========                 |
  \\      /  F ield         | OpenFOAM: The Open Source CFD Toolbox
   \\    /   O peration     | Website:  https://openfoam.org
    \\  /    A nd           | Version:  6
     \\/     M anipulation  |
\*---------------------------------------------------------------------------*/
FoamFile
{
    version     2.0;
    format      ascii;
    class       volScalarField;
    location    "0.1";
    object      alpha_exh;
}
// * * * * * * * * * * * * * * * * * * * * * * * * * * * * * * * * * * * * * //

dimensions      [0 0 0 0 0 0 0];

internalField   nonuniform List<scalar> 
3029
(
0.0273083
0.028045
0.0178944
0.193528
0.557659
0.193527
0.0178947
0.0280451
0.0273077
0.0219438
0.0205564
0.00738184
0.197216
0.573241
0.197216
0.00738233
0.0205568
0.0219437
0.060058
0.0762062
0.0884745
0.311913
0.645334
0.311912
0.0884757
0.0762076
0.0600581
0.180888
0.217857
0.270683
0.483278
0.736206
0.483277
0.270684
0.21786
0.180888
0.366241
0.409281
0.480117
0.64786
0.818811
0.647858
0.480118
0.409283
0.366241
0.554281
0.590272
0.655387
0.773787
0.881739
0.773786
0.655388
0.590275
0.554282
0.707629
0.732668
0.782285
0.860146
0.925409
0.860145
0.782286
0.73267
0.70763
0.817745
0.833181
0.867333
0.916049
0.954226
0.916049
0.867333
0.833183
0.817746
0.890765
0.899431
0.921509
0.950877
0.972601
0.950877
0.921509
0.899432
0.890766
0.936687
0.941124
0.954786
0.971958
0.984005
0.971957
0.954786
0.941124
0.936687
0.964459
0.966474
0.974647
0.984415
0.990916
0.984414
0.974647
0.966474
0.964459
0.98071
0.981452
0.98621
0.991626
0.995035
0.991626
0.98621
0.981452
0.98071
0.989927
0.990076
0.992826
0.995797
0.997565
0.995797
0.992826
0.990076
0.989928
0.995004
0.99497
0.996566
0.997335
0.996665
0.997335
0.996566
0.99497
0.995005
0.997668
0.997142
0.997423
1.00846
1.03213
1.00846
0.997423
0.997142
0.997668
0.998975
1.00293
1.02786
0.973171
0.663141
0.973172
1.02786
1.00293
0.998975
1.00359
1.01175
0.901929
0.367379
0.00934133
0.367381
0.90193
1.01175
1.00359
1.00894
0.998266
0.716598
0.0985031
-0.0255629
0.0985049
0.716601
0.998266
1.00894
1.01006
0.981111
0.650195
0.0752172
-0.0203915
0.075219
0.650198
0.981112
1.01006
1.00806
0.972262
0.670061
0.175455
0.0609531
0.175457
0.670064
0.972263
1.00806
1.00541
0.971228
0.724421
0.322837
0.202706
0.322839
0.724424
0.971229
1.00541
1.00324
0.974044
0.78247
0.467945
0.358734
0.467947
0.782473
0.974045
1.00324
1.0017
0.978028
0.832982
0.592479
0.501368
0.592481
0.832984
0.978029
1.0017
1.00071
0.98201
0.873792
0.693217
0.620969
0.693219
0.873794
0.98201
1.00071
1.00012
0.985555
0.905588
0.772024
0.716665
0.772026
0.905589
0.985555
1.00012
0.999804
0.988531
0.929808
0.832295
0.790972
0.832295
0.929809
0.988531
0.999804
0.999663
0.990937
0.947952
0.877592
0.847396
0.877592
0.947952
0.990937
0.999663
0.999624
0.992824
0.961368
0.911138
0.889437
0.911138
0.961369
0.992823
0.999625
0.999626
0.99427
0.971233
0.935682
0.92022
0.935682
0.971233
0.99427
0.999626
0.999624
0.995389
0.978606
0.953577
0.942514
0.953577
0.978606
0.995389
0.999624
0.999645
0.996417
0.98451
0.967097
0.959225
0.967097
0.98451
0.996417
0.999645
0.999772
0.997579
0.988975
0.975455
0.968955
0.975455
0.988975
0.997579
0.999772
0.999964
0.998865
0.993226
0.982188
0.975854
0.982188
0.993226
0.998865
0.999964
1.00016
1.00002
0.997792
0.991182
0.985921
0.991182
0.997792
1.00002
1.00016
0.0280449
0.123022
0.210159
0.424875
0.693454
0.424874
0.21016
0.123023
0.0280448
0.0205564
0.122358
0.219103
0.446824
0.711778
0.446823
0.219105
0.122359
0.0205569
0.0762063
0.197282
0.32165
0.540412
0.763792
0.540412
0.321651
0.197285
0.0762078
0.217858
0.332343
0.467304
0.658674
0.825361
0.658674
0.467305
0.332346
0.21786
0.409281
0.499568
0.61888
0.76614
0.879589
0.76614
0.618882
0.499571
0.409284
0.590272
0.653592
0.744882
0.847955
0.920607
0.847955
0.744883
0.653595
0.590276
0.732668
0.773586
0.837056
0.904662
0.949274
0.904662
0.837057
0.773588
0.732671
0.833182
0.857762
0.899283
0.941802
0.968384
0.941801
0.899283
0.857764
0.833184
0.899431
0.913285
0.939314
0.965252
0.98072
0.965252
0.939315
0.913287
0.899432
0.941124
0.948449
0.964237
0.979674
0.988487
0.979674
0.964237
0.94845
0.941125
0.966474
0.970058
0.97937
0.988357
0.993275
0.988357
0.97937
0.970058
0.966475
0.981452
0.983013
0.988367
0.993491
0.996178
0.99349
0.988367
0.983013
0.981452
0.990076
0.990607
0.993622
0.996509
0.997982
0.996509
0.993622
0.990608
0.990076
0.99497
0.994981
0.996669
0.998078
0.998078
0.998078
0.996669
0.994981
0.99497
0.997142
0.997266
0.997745
0.999774
1.00921
0.999773
0.997745
0.997266
0.997142
1.00293
0.9995
1.00729
1.02228
0.972903
1.02228
1.00729
0.9995
1.00293
1.01175
1.00568
0.993294
0.805805
0.450382
0.805806
0.993294
1.00568
1.01175
0.998266
1.00708
0.939359
0.569835
0.189512
0.569837
0.93936
1.00708
0.998266
0.981112
1.00197
0.904429
0.507305
0.184088
0.507307
0.904431
1.00197
0.981112
0.972262
0.996083
0.898488
0.550065
0.283103
0.550068
0.89849
0.996083
0.972263
0.971228
0.992294
0.908483
0.628828
0.415172
0.62883
0.908485
0.992294
0.971229
0.974045
0.990635
0.923343
0.708009
0.542013
0.708012
0.923345
0.990635
0.974045
0.978028
0.990392
0.93807
0.775911
0.650462
0.775913
0.938071
0.990392
0.978029
0.98201
0.99096
0.950995
0.830719
0.737814
0.83072
0.950996
0.99096
0.982011
0.985555
0.991926
0.961761
0.873681
0.806077
0.873682
0.961761
0.991926
0.985555
0.988532
0.99303
0.970469
0.906805
0.858469
0.906805
0.970469
0.99303
0.988532
0.990937
0.99411
0.977378
0.932114
0.898274
0.932115
0.977378
0.99411
0.990938
0.992824
0.995065
0.982796
0.951433
0.928447
0.951434
0.982795
0.995065
0.992824
0.994271
0.995834
0.987062
0.966356
0.951508
0.966356
0.987062
0.995834
0.994271
0.995389
0.996388
0.990567
0.978221
0.96947
0.978221
0.990566
0.996388
0.995389
0.996417
0.996978
0.994496
0.989072
0.985184
0.989072
0.994495
0.996977
0.996417
0.997579
0.997649
0.995855
0.992151
0.98956
0.992151
0.995854
0.997649
0.997579
0.998865
0.998748
0.996211
0.990054
0.98607
0.990054
0.996211
0.998748
0.998865
1.00002
1.00007
0.998429
0.992521
0.987624
0.992521
0.998429
1.00007
1.00002
0.0178944
0.210159
0.482428
0.711669
0.861675
0.711668
0.482428
0.21016
0.0178945
0.0073819
0.219103
0.509383
0.735022
0.873459
0.735021
0.509384
0.219105
0.00738254
0.0884748
0.32165
0.590319
0.786148
0.897934
0.786147
0.59032
0.321652
0.0884766
0.270683
0.467304
0.687617
0.842915
0.924963
0.842914
0.687617
0.467306
0.270686
0.480118
0.618881
0.780375
0.892577
0.948256
0.892577
0.780375
0.618883
0.480121
0.655388
0.744883
0.854753
0.93013
0.965833
0.930129
0.854752
0.744884
0.65539
0.782286
0.837057
0.907952
0.956125
0.978127
0.956125
0.907952
0.837058
0.782288
0.867333
0.899283
0.94337
0.973149
0.986331
0.973149
0.94337
0.899284
0.867335
0.921509
0.939315
0.965944
0.983907
0.991634
0.983907
0.965944
0.939315
0.92151
0.954786
0.964237
0.979919
0.990535
0.99498
0.990535
0.979919
0.964237
0.954787
0.974648
0.979371
0.988382
0.994537
0.997048
0.994537
0.988381
0.979371
0.974648
0.98621
0.988367
0.993411
0.996912
0.998305
0.996912
0.993411
0.988367
0.986211
0.992826
0.993622
0.996349
0.998307
0.999087
0.998307
0.996349
0.993622
0.992826
0.996566
0.996669
0.998052
0.999142
0.999505
0.999142
0.998052
0.996669
0.996566
0.997423
0.997745
0.9989
0.999235
0.999606
0.999235
0.9989
0.997745
0.997423
1.02786
1.00729
1.00054
1.00654
1.01988
1.00654
1.00054
1.00729
1.02786
0.901929
0.993294
1.00347
0.997798
0.932018
0.997798
1.00347
0.993294
0.901929
0.716598
0.939359
1.00073
0.953837
0.794151
0.953838
1.00073
0.939359
0.7166
0.650195
0.904429
0.994065
0.924984
0.75176
0.924985
0.994065
0.904429
0.650197
0.670062
0.898488
0.988488
0.919504
0.770953
0.919505
0.988488
0.898489
0.670063
0.724422
0.908484
0.985572
0.92704
0.811246
0.927041
0.985572
0.908484
0.724423
0.782471
0.923344
0.984849
0.938758
0.852296
0.938759
0.984849
0.923345
0.782472
0.832983
0.938071
0.985489
0.950547
0.887486
0.950548
0.985489
0.938071
0.832984
0.873793
0.950995
0.986865
0.960955
0.915681
0.960955
0.986865
0.950996
0.873794
0.905588
0.961761
0.988568
0.969687
0.937638
0.969687
0.988568
0.961761
0.905589
0.929809
0.97047
0.990339
0.976861
0.954571
0.97686
0.990339
0.97047
0.929809
0.947952
0.977379
0.99203
0.982721
0.967662
0.98272
0.99203
0.977379
0.947953
0.961369
0.982796
0.993577
0.987567
0.977956
0.987566
0.993577
0.982796
0.961369
0.971233
0.987063
0.995015
0.991752
0.986368
0.991751
0.995015
0.987063
0.971233
0.978606
0.990567
0.996598
0.995736
0.993704
0.995735
0.996597
0.990567
0.978606
0.984511
0.994496
0.999489
1.00016
1.0006
1.00016
0.999488
0.994496
0.984511
0.988975
0.995855
0.995855
0.988975
0.993226
0.996211
0.997619
0.994361
0.990448
0.994361
0.997618
0.996211
0.993226
0.997792
0.998429
0.998526
0.994613
0.989993
0.994614
0.998526
0.998429
0.997792
0.998921
0.995424
0.991048
0.995424
0.998921
0.999043
0.995998
0.992086
0.995998
0.999042
0.999136
0.99645
0.992986
0.99645
0.999136
0.999215
0.996833
0.993771
0.996833
0.999214
0.999285
0.99717
0.994464
0.99717
0.999285
0.99935
0.99747
0.99508
0.99747
0.999349
0.999408
0.997738
0.995628
0.997738
0.999408
0.999462
0.997978
0.996116
0.997979
0.999462
0.999511
0.998194
0.99655
0.998194
0.999511
0.999557
0.998388
0.996938
0.998388
0.999557
0.999597
0.998558
0.997278
0.998558
0.999597
0.999676
0.998799
0.99773
0.9988
0.999676
0.193529
0.424876
0.711669
0.896443
0.965072
0.896442
0.711669
0.424876
0.193529
0.197218
0.446825
0.735022
0.907486
0.968211
0.907485
0.735022
0.446826
0.197219
0.311915
0.540414
0.786148
0.926299
0.974075
0.926298
0.786148
0.540414
0.311917
0.48328
0.658676
0.842915
0.946084
0.980541
0.946084
0.842914
0.658676
0.483282
0.647862
0.766142
0.892577
0.963109
0.986296
0.963109
0.892577
0.766142
0.647863
0.773789
0.847956
0.93013
0.975926
0.990778
0.975927
0.930129
0.847957
0.77379
0.860147
0.904663
0.956125
0.984813
0.993998
0.984814
0.956125
0.904663
0.860148
0.91605
0.941802
0.973149
0.990662
0.996198
0.990663
0.973149
0.941802
0.916051
0.950878
0.965253
0.983907
0.994381
0.99765
0.994382
0.983906
0.965253
0.950878
0.971958
0.979674
0.990535
0.996688
0.998581
0.996688
0.990535
0.979674
0.971958
0.984415
0.988357
0.994537
0.998089
0.999166
0.998089
0.994537
0.988357
0.984415
0.991627
0.993491
0.996912
0.998924
0.999525
0.998924
0.996912
0.99349
0.991627
0.995797
0.996509
0.998307
0.999415
0.999747
0.999416
0.998307
0.996509
0.995797
0.997335
0.998078
0.999142
0.999721
0.999909
0.999722
0.999142
0.998078
0.997335
1.00846
0.999774
0.999235
0.999818
0.999755
0.999818
0.999235
0.999773
1.00846
0.973172
1.02228
1.00654
1.00046
1.00224
1.00046
1.00654
1.02228
0.973172
0.367379
0.805805
0.997798
1.00605
1.00815
1.00605
0.997798
0.805805
0.36738
0.0985035
0.569835
0.953838
1.00904
1.00207
1.00904
0.953837
0.569836
0.0985045
0.0752175
0.507305
0.924984
1.00602
0.993156
1.00602
0.924984
0.507306
0.0752187
0.175456
0.550066
0.919504
1.0013
0.988105
1.0013
0.919504
0.550066
0.175457
0.322837
0.628829
0.92704
0.997733
0.986847
0.997733
0.92704
0.628829
0.322838
0.467946
0.70801
0.938759
0.995739
0.987569
0.995739
0.938759
0.70801
0.467947
0.59248
0.775912
0.950548
0.994923
0.989095
0.994923
0.950548
0.775912
0.592481
0.693217
0.83072
0.960956
0.994871
0.990852
0.994871
0.960956
0.83072
0.693218
0.772025
0.873682
0.969688
0.995247
0.992566
0.995247
0.969688
0.873682
0.772025
0.832295
0.906805
0.976861
0.995853
0.994141
0.995853
0.976861
0.906805
0.832295
0.877592
0.932115
0.982721
0.996571
0.99556
0.996571
0.982721
0.932115
0.877592
0.911138
0.951434
0.987567
0.997349
0.996847
0.997348
0.987567
0.951434
0.911138
0.935682
0.966356
0.991752
0.998184
0.998048
0.998183
0.991752
0.966356
0.935682
0.953577
0.978222
0.995736
0.999115
0.999193
0.999115
0.995736
0.978222
0.953577
0.967097
0.989073
1.00017
1.00012
1.00018
1.00012
1.00016
0.989072
0.967097
0.975455
0.992152
0.992151
0.975455
0.982188
0.990054
0.994362
0.996074
0.994495
0.996074
0.994361
0.990054
0.982188
0.991182
0.992521
0.994614
0.995873
0.994049
0.995873
0.994613
0.992521
0.991182
0.995424
0.99618
0.994443
0.99618
0.995423
0.995998
0.99654
0.994997
0.996539
0.995997
0.99645
0.996882
0.995525
0.996882
0.99645
0.996833
0.997195
0.996003
0.997194
0.996832
0.99717
0.997477
0.996432
0.997477
0.997169
0.99747
0.997733
0.996816
0.997733
0.997469
0.997738
0.997963
0.997159
0.997963
0.997738
0.997978
0.998171
0.997466
0.998171
0.997978
0.998194
0.998359
0.99774
0.998359
0.998194
0.998388
0.998528
0.997986
0.998528
0.998387
0.998558
0.998678
0.998202
0.998678
0.998558
0.9988
0.998895
0.998501
0.998895
0.998799
0.55766
0.693455
0.861675
0.965072
0.995094
0.965071
0.861674
0.693455
0.55766
0.573243
0.711779
0.873459
0.96821
0.994902
0.96821
0.873458
0.711779
0.573244
0.645335
0.763793
0.897934
0.974074
0.99526
0.974074
0.897934
0.763793
0.645336
0.736208
0.825362
0.924963
0.98054
0.995981
0.98054
0.924962
0.825362
0.736209
0.818812
0.87959
0.948256
0.986296
0.996857
0.986296
0.948256
0.87959
0.818814
0.88174
0.920607
0.965833
0.990778
0.997686
0.990777
0.965831
0.920607
0.881742
0.92541
0.949274
0.978127
0.993998
0.998375
0.993997
0.978125
0.949273
0.925411
0.954227
0.968385
0.986331
0.996198
0.998903
0.996197
0.986329
0.968384
0.954228
0.972601
0.980721
0.991634
0.99765
0.999286
0.997649
0.991632
0.980719
0.972602
0.984005
0.988487
0.99498
0.998581
0.999553
0.998581
0.994978
0.988486
0.984005
0.990916
0.993275
0.997048
0.999166
0.999731
0.999166
0.997047
0.993274
0.990917
0.995035
0.996178
0.998305
0.999525
0.999846
0.999525
0.998304
0.996177
0.995036
0.997565
0.997982
0.999087
0.999747
0.999921
0.999747
0.999086
0.997982
0.997565
0.996665
0.998078
0.999505
0.999909
0.999981
0.999909
0.999504
0.998078
0.996665
1.03213
1.00921
0.999606
0.999755
0.999987
0.999755
0.999606
1.00921
1.03213
0.663142
0.972903
1.01988
1.00224
1.00008
1.00224
1.01988
0.972903
0.663142
0.0093414
0.450382
0.932018
1.00815
1.00293
1.00815
0.932018
0.450382
0.00934163
-0.025563
0.189513
0.794152
1.00207
1.00634
1.00207
0.794151
0.189513
-0.0255628
-0.0203916
0.184088
0.751761
0.993156
1.00662
0.993155
0.75176
0.184089
-0.0203913
0.0609529
0.283103
0.770953
0.988105
1.00486
0.988105
0.770952
0.283103
0.0609534
0.202706
0.415172
0.811246
0.986847
1.0028
0.986847
0.811245
0.415172
0.202707
0.358733
0.542013
0.852297
0.987569
1.00117
0.987569
0.852296
0.542013
0.358733
0.501367
0.650461
0.887487
0.989096
1.00007
0.989096
0.887486
0.650461
0.501368
0.620968
0.737814
0.915682
0.990852
0.99943
0.990852
0.915681
0.737814
0.620968
0.716664
0.806077
0.937638
0.992566
0.999115
0.992567
0.937638
0.806077
0.716665
0.790971
0.858468
0.954571
0.994141
0.999012
0.994142
0.954571
0.858468
0.790971
0.847395
0.898274
0.967662
0.99556
0.999043
0.99556
0.967662
0.898273
0.847395
0.889436
0.928446
0.977956
0.996847
0.999157
0.996848
0.977956
0.928446
0.889436
0.92022
0.951508
0.986368
0.998048
0.99933
0.998049
0.986368
0.951507
0.92022
0.942513
0.96947
0.993704
0.999193
0.999559
0.999193
0.993704
0.96947
0.942513
0.959225
0.985184
1.0006
1.00018
0.999872
1.00018
1.0006
0.985184
0.959224
0.968954
0.98956
0.98956
0.968954
0.975854
0.98607
0.990448
0.994495
0.996701
0.994495
0.990448
0.98607
0.975854
0.98592
0.987624
0.989993
0.994049
0.996407
0.994049
0.989993
0.987624
0.98592
0.991048
0.994443
0.996541
0.994443
0.991048
0.992086
0.994997
0.996813
0.994997
0.992086
0.992985
0.995525
0.997104
0.995524
0.992985
0.993771
0.996003
0.997381
0.996003
0.99377
0.994464
0.996432
0.997636
0.996431
0.994463
0.995079
0.996816
0.997868
0.996815
0.995079
0.995628
0.997159
0.998078
0.997158
0.995627
0.996116
0.997466
0.998269
0.997465
0.996115
0.99655
0.99774
0.998441
0.99774
0.99655
0.996938
0.997986
0.998598
0.997986
0.996938
0.997278
0.998202
0.998737
0.998202
0.997277
0.99773
0.998501
0.998946
0.998501
0.99773
0.193527
0.424875
0.711668
0.896441
0.965071
0.896441
0.711668
0.424875
0.193528
0.197216
0.446824
0.735021
0.907485
0.968209
0.907484
0.735021
0.446825
0.197217
0.311913
0.540413
0.786147
0.926298
0.974074
0.926297
0.786147
0.540413
0.311915
0.483278
0.658674
0.842914
0.946084
0.98054
0.946083
0.842914
0.658675
0.48328
0.647859
0.76614
0.892577
0.963108
0.986296
0.963107
0.892576
0.766141
0.647861
0.773787
0.847955
0.930129
0.975926
0.990777
0.975923
0.930128
0.847956
0.773789
0.860145
0.904662
0.956125
0.984814
0.993997
0.984809
0.956122
0.904663
0.860147
0.916049
0.941801
0.973149
0.990663
0.996197
0.990657
0.973145
0.941803
0.91605
0.950877
0.965252
0.983907
0.994382
0.997649
0.994376
0.983902
0.965253
0.950878
0.971957
0.979674
0.990535
0.996688
0.998581
0.996684
0.99053
0.979675
0.971958
0.984414
0.988357
0.994537
0.998089
0.999165
0.998086
0.994534
0.988357
0.984415
0.991626
0.99349
0.996912
0.998924
0.999525
0.998922
0.996909
0.993491
0.991627
0.995797
0.996509
0.998307
0.999416
0.999747
0.999414
0.998304
0.996509
0.995797
0.997335
0.998078
0.999142
0.999722
0.999909
0.99972
0.99914
0.998078
0.997335
1.00846
0.999773
0.999235
0.999818
0.999755
0.999817
0.999234
0.999773
1.00846
0.973173
1.02228
1.00654
1.00046
1.00224
1.00046
1.00654
1.02228
0.973173
0.367381
0.805806
0.997798
1.00605
1.00815
1.00605
0.997797
0.805806
0.367381
0.0985049
0.569837
0.953838
1.00904
1.00207
1.00904
0.953837
0.569837
0.0985051
0.0752188
0.507307
0.924985
1.00602
0.993156
1.00602
0.924984
0.507306
0.075219
0.175457
0.550067
0.919505
1.0013
0.988105
1.0013
0.919504
0.550066
0.175457
0.322838
0.62883
0.927041
0.997733
0.986847
0.997733
0.92704
0.628829
0.322838
0.467946
0.708011
0.938759
0.995739
0.987569
0.995739
0.938758
0.70801
0.467946
0.59248
0.775912
0.950548
0.994923
0.989096
0.994923
0.950547
0.775912
0.59248
0.693217
0.830719
0.960955
0.994871
0.990852
0.994871
0.960955
0.830719
0.693217
0.772024
0.873681
0.969687
0.995247
0.992567
0.995248
0.969687
0.873681
0.772024
0.832294
0.906804
0.97686
0.995853
0.994142
0.995853
0.976861
0.906804
0.832294
0.877591
0.932114
0.98272
0.996571
0.995561
0.996571
0.982721
0.932114
0.877591
0.911137
0.951433
0.987566
0.997348
0.996848
0.997349
0.987567
0.951433
0.911137
0.935681
0.966355
0.991751
0.998183
0.998049
0.998184
0.991752
0.966355
0.935681
0.953577
0.978221
0.995735
0.999115
0.999193
0.999115
0.995736
0.978221
0.953577
0.967097
0.989072
1.00016
1.00012
1.00018
1.00012
1.00016
0.989072
0.967097
0.975455
0.992151
0.992151
0.975455
0.982188
0.990054
0.994361
0.996074
0.994495
0.996074
0.994361
0.990054
0.982188
0.991182
0.992521
0.994613
0.995873
0.994049
0.995873
0.994613
0.992521
0.991182
0.995424
0.99618
0.994443
0.99618
0.995423
0.995998
0.996539
0.994997
0.996539
0.995998
0.99645
0.996882
0.995524
0.996882
0.99645
0.996833
0.997194
0.996003
0.997194
0.996833
0.99717
0.997477
0.996431
0.997477
0.997169
0.99747
0.997733
0.996815
0.997732
0.997469
0.997738
0.997963
0.997158
0.997963
0.997738
0.997979
0.998171
0.997465
0.998171
0.997978
0.998194
0.998359
0.99774
0.998358
0.998194
0.998388
0.998528
0.997986
0.998528
0.998388
0.998558
0.998678
0.998202
0.998678
0.998558
0.9988
0.998895
0.998501
0.998895
0.998799
0.0178951
0.210161
0.482429
0.711668
0.861674
0.711668
0.482429
0.210161
0.0178949
0.00738283
0.219106
0.509384
0.735021
0.873458
0.735021
0.509385
0.219106
0.00738299
0.0884769
0.321652
0.59032
0.786147
0.897933
0.786147
0.59032
0.321653
0.0884774
0.270686
0.467307
0.687618
0.842914
0.924962
0.842914
0.687618
0.467307
0.270687
0.48012
0.618883
0.780375
0.892576
0.948256
0.892576
0.780376
0.618883
0.480121
0.655389
0.744884
0.854752
0.930129
0.965831
0.930128
0.854753
0.744885
0.65539
0.782287
0.837057
0.907952
0.956125
0.978125
0.956122
0.907953
0.837058
0.782288
0.867334
0.899283
0.94337
0.973149
0.986329
0.973145
0.943371
0.899284
0.867334
0.921509
0.939315
0.965944
0.983906
0.991632
0.983902
0.965945
0.939315
0.92151
0.954786
0.964237
0.979918
0.990535
0.994978
0.99053
0.979919
0.964238
0.954787
0.974648
0.979371
0.988381
0.994537
0.997047
0.994534
0.988381
0.979371
0.974648
0.98621
0.988367
0.993411
0.996912
0.998304
0.996909
0.99341
0.988367
0.986211
0.992826
0.993622
0.996349
0.998307
0.999086
0.998304
0.996348
0.993622
0.992826
0.996566
0.996669
0.998052
0.999142
0.999504
0.99914
0.998052
0.996669
0.996566
0.997423
0.997745
0.9989
0.999235
0.999606
0.999234
0.9989
0.997745
0.997423
1.02786
1.00729
1.00054
1.00654
1.01988
1.00654
1.00054
1.00729
1.02786
0.90193
0.993294
1.00347
0.997798
0.932018
0.997798
1.00347
0.993294
0.90193
0.716601
0.93936
1.00073
0.953837
0.794151
0.953837
1.00073
0.93936
0.7166
0.650198
0.90443
0.994065
0.924984
0.75176
0.924984
0.994065
0.90443
0.650197
0.670064
0.898489
0.988488
0.919504
0.770952
0.919504
0.988488
0.898489
0.670063
0.724424
0.908485
0.985572
0.92704
0.811246
0.92704
0.985572
0.908484
0.724423
0.782472
0.923345
0.984849
0.938759
0.852296
0.938759
0.984849
0.923344
0.782472
0.832983
0.938071
0.985489
0.950548
0.887486
0.950548
0.985489
0.938071
0.832983
0.873793
0.950995
0.986865
0.960956
0.915681
0.960956
0.986865
0.950995
0.873793
0.905588
0.96176
0.988568
0.969688
0.937638
0.969688
0.988568
0.961761
0.905588
0.929808
0.970469
0.990339
0.976861
0.954571
0.976861
0.990339
0.970469
0.929808
0.947951
0.977378
0.99203
0.982721
0.967663
0.982721
0.99203
0.977378
0.947951
0.961368
0.982795
0.993577
0.987567
0.977956
0.987567
0.993577
0.982796
0.961368
0.971232
0.987061
0.995014
0.991752
0.986368
0.991752
0.995015
0.987062
0.971232
0.978605
0.990566
0.996597
0.995736
0.993704
0.995736
0.996598
0.990567
0.978605
0.98451
0.994495
0.999488
1.00016
1.0006
1.00016
0.999488
0.994496
0.98451
0.988975
0.995854
0.995855
0.988975
0.993226
0.99621
0.997618
0.994361
0.990448
0.994361
0.997619
0.996211
0.993226
0.997792
0.998429
0.998526
0.994613
0.989992
0.994613
0.998526
0.998429
0.997792
0.998921
0.995423
0.991048
0.995423
0.998921
0.999042
0.995997
0.992086
0.995998
0.999043
0.999135
0.996449
0.992985
0.99645
0.999136
0.999214
0.996832
0.99377
0.996833
0.999215
0.999285
0.997169
0.994463
0.997169
0.999285
0.999349
0.997469
0.995079
0.997469
0.99935
0.999408
0.997738
0.995627
0.997738
0.999408
0.999462
0.997978
0.996115
0.997978
0.999462
0.999511
0.998194
0.99655
0.998194
0.999511
0.999557
0.998387
0.996938
0.998388
0.999557
0.999597
0.998558
0.997277
0.998558
0.999597
0.999676
0.998799
0.99773
0.998799
0.999676
0.0280454
0.123024
0.210161
0.424876
0.693455
0.424876
0.210161
0.123024
0.0280453
0.0205573
0.12236
0.219106
0.446826
0.711779
0.446825
0.219106
0.122361
0.0205574
0.0762085
0.197286
0.321653
0.540414
0.763793
0.540413
0.321653
0.197286
0.076209
0.217861
0.332347
0.467307
0.658676
0.825362
0.658675
0.467307
0.332348
0.217862
0.409285
0.499572
0.618883
0.766142
0.87959
0.766141
0.618883
0.499572
0.409286
0.590276
0.653596
0.744884
0.847956
0.920607
0.847956
0.744885
0.653596
0.590277
0.732671
0.773589
0.837058
0.904663
0.949273
0.904663
0.837058
0.773589
0.732672
0.833184
0.857764
0.899284
0.941802
0.968384
0.941803
0.899284
0.857764
0.833184
0.899432
0.913287
0.939315
0.965252
0.980719
0.965253
0.939315
0.913287
0.899433
0.941125
0.94845
0.964237
0.979674
0.988486
0.979675
0.964238
0.94845
0.941125
0.966475
0.970058
0.979371
0.988357
0.993274
0.988357
0.979371
0.970059
0.966475
0.981452
0.983013
0.988367
0.99349
0.996177
0.993491
0.988367
0.983013
0.981452
0.990076
0.990608
0.993622
0.996509
0.997982
0.996509
0.993622
0.990608
0.990076
0.99497
0.994981
0.996669
0.998078
0.998078
0.998078
0.996669
0.994981
0.99497
0.997142
0.997266
0.997745
0.999773
1.00921
0.999773
0.997745
0.997266
0.997142
1.00293
0.9995
1.00729
1.02228
0.972903
1.02228
1.00729
0.9995
1.00293
1.01175
1.00568
0.993294
0.805805
0.450383
0.805806
0.993294
1.00568
1.01175
0.998266
1.00708
0.939359
0.569836
0.189513
0.569837
0.93936
1.00708
0.998266
0.981112
1.00197
0.904429
0.507305
0.184089
0.507307
0.90443
1.00197
0.981112
0.972263
0.996083
0.898488
0.550065
0.283103
0.550067
0.898489
0.996083
0.972263
0.971229
0.992294
0.908484
0.628828
0.415172
0.62883
0.908485
0.992294
0.971229
0.974045
0.990635
0.923344
0.70801
0.542013
0.708011
0.923345
0.990635
0.974045
0.978028
0.990392
0.938071
0.775912
0.650461
0.775913
0.938071
0.990392
0.978028
0.98201
0.99096
0.950995
0.830719
0.737814
0.83072
0.950996
0.99096
0.98201
0.985555
0.991926
0.961761
0.873681
0.806077
0.873682
0.961761
0.991926
0.985555
0.988531
0.99303
0.97047
0.906805
0.858468
0.906805
0.97047
0.99303
0.988531
0.990937
0.99411
0.977378
0.932114
0.898273
0.932115
0.977378
0.99411
0.990937
0.992823
0.995065
0.982796
0.951433
0.928446
0.951434
0.982796
0.995065
0.992824
0.99427
0.995834
0.987062
0.966356
0.951507
0.966356
0.987062
0.995834
0.99427
0.995389
0.996388
0.990567
0.978221
0.96947
0.978221
0.990567
0.996388
0.995389
0.996417
0.996977
0.994496
0.989072
0.985184
0.989072
0.994496
0.996978
0.996417
0.997578
0.997649
0.995855
0.992151
0.98956
0.992151
0.995855
0.997649
0.997579
0.998864
0.998748
0.996211
0.990054
0.98607
0.990054
0.996211
0.998748
0.998865
1.00002
1.00007
0.998429
0.992521
0.987624
0.992521
0.998429
1.00007
1.00002
0.0273078
0.0280451
0.0178948
0.193529
0.55766
0.193528
0.0178949
0.0280453
0.0273078
0.0219439
0.0205572
0.00738282
0.197219
0.573244
0.197218
0.00738297
0.0205574
0.0219441
0.0600586
0.0762085
0.0884772
0.311916
0.645336
0.311915
0.0884774
0.076209
0.0600592
0.180889
0.217861
0.270687
0.483282
0.736209
0.483281
0.270687
0.217862
0.18089
0.366242
0.409285
0.480121
0.647863
0.818813
0.647862
0.480121
0.409286
0.366244
0.554283
0.590276
0.655391
0.77379
0.881741
0.773789
0.655391
0.590277
0.554284
0.70763
0.732672
0.782288
0.860148
0.925411
0.860147
0.782288
0.732672
0.707632
0.817746
0.833184
0.867335
0.916051
0.954228
0.916051
0.867335
0.833184
0.817747
0.890766
0.899433
0.92151
0.950878
0.972602
0.950878
0.92151
0.899433
0.890767
0.936687
0.941125
0.954787
0.971958
0.984005
0.971958
0.954787
0.941125
0.936688
0.964459
0.966475
0.974648
0.984415
0.990917
0.984415
0.974648
0.966475
0.964459
0.98071
0.981452
0.986211
0.991627
0.995036
0.991627
0.986211
0.981452
0.98071
0.989928
0.990076
0.992826
0.995797
0.997565
0.995797
0.992826
0.990076
0.989928
0.995005
0.99497
0.996566
0.997335
0.996665
0.997335
0.996566
0.99497
0.995005
0.997668
0.997142
0.997423
1.00846
1.03213
1.00846
0.997423
0.997142
0.997668
0.998975
1.00293
1.02786
0.973172
0.663143
0.973173
1.02786
1.00293
0.998975
1.00359
1.01175
0.901929
0.367381
0.00934164
0.367382
0.90193
1.01175
1.00359
1.00894
0.998266
0.716599
0.0985044
-0.0255629
0.0985053
0.716601
0.998266
1.00894
1.01006
0.981112
0.650196
0.0752183
-0.0203914
0.0752192
0.650198
0.981112
1.01006
1.00806
0.972263
0.670062
0.175456
0.0609532
0.175457
0.670064
0.972263
1.00806
1.00541
0.971228
0.724422
0.322837
0.202706
0.322838
0.724424
0.971229
1.00541
1.00324
0.974045
0.782471
0.467945
0.358733
0.467946
0.782472
0.974045
1.00324
1.0017
0.978028
0.832983
0.592479
0.501367
0.59248
0.832984
0.978029
1.0017
1.00071
0.98201
0.873793
0.693217
0.620968
0.693217
0.873794
0.982011
1.00071
1.00012
0.985555
0.905588
0.772024
0.716664
0.772024
0.905589
0.985555
1.00012
0.999804
0.988532
0.929808
0.832294
0.79097
0.832294
0.929808
0.988532
0.999804
0.999663
0.990937
0.947952
0.877591
0.847394
0.877591
0.947952
0.990937
0.999663
0.999625
0.992824
0.961368
0.911137
0.889436
0.911137
0.961368
0.992824
0.999625
0.999626
0.99427
0.971233
0.935681
0.920219
0.935681
0.971233
0.99427
0.999626
0.999624
0.995389
0.978606
0.953577
0.942513
0.953577
0.978606
0.995389
0.999624
0.999645
0.996417
0.98451
0.967097
0.959224
0.967097
0.98451
0.996417
0.999645
0.999772
0.997579
0.988975
0.975455
0.968954
0.975455
0.988975
0.997579
0.999772
0.999964
0.998865
0.993226
0.982188
0.975853
0.982188
0.993226
0.998865
0.999964
1.00016
1.00002
0.997792
0.991182
0.98592
0.991182
0.997792
1.00002
1.00016
)
;

boundaryField
{
    injectionXMinus
    {
        type            calculated;
        value           nonuniform List<scalar> 2(-4.89026e-05 5.15196e-05);
    }
    injectionXPlus
    {
        type            calculated;
        value           nonuniform List<scalar> 2(-4.89557e-05 5.14724e-05);
    }
    injectionYMinus
    {
        type            calculated;
        value           nonuniform List<scalar> 2(-4.8902e-05 5.15197e-05);
    }
    injectionYPlus
    {
        type            calculated;
        value           nonuniform List<scalar> 2(-4.89552e-05 5.1472e-05);
    }
    inletXMinus
    {
        type            calculated;
        value           uniform 0;
    }
    inletXPlus
    {
        type            calculated;
        value           uniform 0;
    }
    inletYMinus
    {
        type            calculated;
        value           uniform 0;
    }
    inletYPlus
    {
        type            calculated;
        value           uniform 0;
    }
    outlet
    {
        type            calculated;
        value           nonuniform List<scalar> 
25
(
0.999676
0.998799
0.99773
0.9988
0.999676
0.9988
0.998895
0.998501
0.998895
0.998799
0.99773
0.998501
0.998946
0.998501
0.99773
0.9988
0.998895
0.998501
0.998895
0.998799
0.999676
0.998799
0.99773
0.998799
0.999676
)
;
    }
    valve
    {
        type            calculated;
        value           nonuniform List<scalar> 
70
(
0.995855
0.992151
0.98956
0.992151
0.995854
0.999489
1.00016
1.0006
1.00016
0.999488
0.995855
1.00017
1.00012
1.00018
1.00012
1.00016
0.992152
1.0006
1.00018
0.999872
1.00018
1.0006
0.98956
1.00016
1.00012
1.00018
1.00012
1.00016
0.992151
0.999488
1.00016
1.0006
1.00016
0.999488
0.995854
0.997619
0.994361
0.990448
0.994361
0.995855
0.997618
0.994362
0.996074
0.994495
0.996074
0.992151
0.994361
0.990448
0.994495
0.996701
0.994495
0.98956
0.990448
0.994361
0.996074
0.994495
0.996074
0.992151
0.994361
0.997618
0.995855
0.994361
0.992151
0.990448
0.98956
0.994361
0.992151
0.995855
0.997619
0.995855
)
;
    }
    walls
    {
        type            calculated;
        value           nonuniform List<scalar> 
1545
(
0.998921
0.0600581
0.180888
0.366241
0.554282
0.70763
0.817746
0.890766
0.936687
0.964459
0.98071
0.989928
0.995005
0.997668
0.998975
1.00359
1.00894
1.01006
1.00806
1.00541
1.00324
1.0017
1.00071
1.00012
0.999804
0.999663
0.999625
0.999626
0.999624
0.999645
0.999772