/*--------------------------------*- C++ -*----------------------------------*\
  =========                 |
  \\      /  F ield         | OpenFOAM: The Open Source CFD Toolbox
   \\    /   O peration     | Website:  https://openfoam.org
    \\  /    A nd           | Version:  6
     \\/     M anipulation  |
\*---------------------------------------------------------------------------*/
FoamFile
{
    version     2.0;
    format      ascii;
    class       volScalarField;
    location    "0.1";
    object      alpha_air;
}
// * * * * * * * * * * * * * * * * * * * * * * * * * * * * * * * * * * * * * //

dimensions      [0 0 0 0 0 0 0];

internalField   nonuniform List<scalar> 
3029
(
0.972692
0.971955
0.982106
0.806472
0.442341
0.806473
0.982105
0.971955
0.972692
0.978056
0.979444
0.992618
0.802784
0.426759
0.802784
0.992618
0.979443
0.978056
0.939942
0.923794
0.911525
0.688087
0.354666
0.688088
0.911524
0.923792
0.939942
0.819112
0.782143
0.729317
0.516722
0.263794
0.516723
0.729316
0.78214
0.819112
0.633759
0.590719
0.519883
0.35214
0.181189
0.352142
0.519882
0.590717
0.633759
0.445719
0.409728
0.344613
0.226213
0.118261
0.226214
0.344612
0.409725
0.445718
0.292371
0.267332
0.217715
0.139854
0.074591
0.139855
0.217714
0.26733
0.29237
0.182255
0.166819
0.132667
0.0839505
0.0457736
0.0839512
0.132667
0.166817
0.182254
0.109235
0.100569
0.0784912
0.0491229
0.0273988
0.0491234
0.078491
0.100568
0.109234
0.0633131
0.0588763
0.0452139
0.0280424
0.0159955
0.0280427
0.0452138
0.0588755
0.0633127
0.0355413
0.0335261
0.0253528
0.015586
0.00908518
0.0155862
0.0253528
0.0335256
0.035541
0.0192903
0.0185489
0.0137937
0.00838508
0.00499059
0.00838527
0.0137937
0.0185486
0.0192901
0.0100758
0.00993732
0.00722829
0.00430901
0.00261468
0.00430915
0.00722834
0.00993716
0.0100757
0.00502714
0.00512723
0.00359618
0.0020469
0.00125696
0.00204701
0.00359624
0.00512715
0.00502707
0.00237131
0.00253092
0.00165305
0.000817924
0.000477542
0.000817999
0.0016531
0.00253088
0.00237127
0.00104136
0.00118908
0.000666708
0.000157027
1.1456e-05
0.00015707
0.000666757
0.00118907
0.00104133
0.000407171
0.000525429
0.000209891
-1.05867e-05
4.89557e-05
-1.05733e-05
0.000209925
0.000525426
0.000407156
0.000105774
0.000191838
-1.64868e-05
-0.000114617
-5.14724e-05
-0.000114618
-1.64657e-05
0.000191837
0.000105763
-3.7265e-05
3.28502e-05
-9.11043e-05
-0.00011936
-4.76554e-05
-0.000119369
-9.10899e-05
3.28474e-05
-3.72775e-05
-0.000100837
-3.80621e-05
-0.00010333
-0.000102287
-4.30472e-05
-0.00010229
-0.00010332
-3.80665e-05
-0.000100852
-0.000123675
-6.75343e-05
-9.72113e-05
-8.38305e-05
-3.63967e-05
-8.38293e-05
-9.7201e-05
-6.75393e-05
-0.000123691
-0.000125174
-7.62844e-05
-8.5214e-05
-6.7187e-05
-3.01712e-05
-6.71839e-05
-8.52038e-05
-7.62891e-05
-0.00012519
-0.000115914
-7.45264e-05
-7.20558e-05
-5.31926e-05
-2.46504e-05
-5.31886e-05
-7.20463e-05
-7.45305e-05
-0.00011593
-0.000101887
-6.7665e-05
-5.95083e-05
-4.17343e-05
-1.99091e-05
-4.17298e-05
-5.94996e-05
-6.76685e-05
-0.000101903
-8.65051e-05
-5.87203e-05
-4.82932e-05
-3.25074e-05
-1.59288e-05
-3.25028e-05
-4.82853e-05
-5.87232e-05
-8.65191e-05
-7.16408e-05
-4.93865e-05
-3.86464e-05
-2.5169e-05
-1.26451e-05
-2.51644e-05
-3.86392e-05
-4.93889e-05
-7.16537e-05
-5.82426e-05
-4.05749e-05
-3.05601e-05
-1.93901e-05
-9.97594e-06
-1.93856e-05
-3.05535e-05
-4.05768e-05
-5.82544e-05
-4.67102e-05
-3.27335e-05
-2.39106e-05
-1.48772e-05
-7.83382e-06
-1.48727e-05
-2.39043e-05
-3.2735e-05
-4.67212e-05
-3.71353e-05
-2.60524e-05
-1.85321e-05
-1.13777e-05
-6.13135e-06
-1.13728e-05
-1.85257e-05
-2.60535e-05
-3.71455e-05
-2.94561e-05
-2.06001e-05
-1.42576e-05
-8.67112e-06
-4.77562e-06
-8.66539e-06
-1.42505e-05
-2.06008e-05
-2.94658e-05
-2.35026e-05
-1.64963e-05
-1.09809e-05
-6.62253e-06
-3.71165e-06
-6.61548e-06
-1.09725e-05
-1.64969e-05
-2.35117e-05
-1.86791e-05
-1.36459e-05
-9.21299e-06
-5.61844e-06
-3.18272e-06
-5.61015e-06
-9.20415e-06
-1.36466e-05
-1.8687e-05
-1.42673e-05
-1.13048e-05
-8.07239e-06
-5.05432e-06
-2.89442e-06
-5.04474e-06
-8.06418e-06
-1.13057e-05
-1.4274e-05
-9.25723e-06
-8.19954e-06
-6.48805e-06
-4.30528e-06
-2.52807e-06
-4.29452e-06
-6.4812e-06
-8.20059e-06
-9.26221e-06
0.971955
0.876978
0.789841
0.575125
0.306546
0.575126
0.78984
0.876977
0.971955
0.979444
0.877642
0.780897
0.553176
0.288222
0.553177
0.780895
0.877641
0.979443
0.923794
0.802718
0.67835
0.459588
0.236208
0.459588
0.678349
0.802715
0.923792
0.782142
0.667657
0.532696
0.341326
0.174639
0.341326
0.532695
0.667654
0.78214
0.590719
0.500432
0.38112
0.23386
0.120411
0.23386
0.381118
0.500429
0.590716
0.409728
0.346408
0.255118
0.152045
0.0793932
0.152045
0.255117
0.346405
0.409724
0.267332
0.226414
0.162944
0.095338
0.0507265
0.0953385
0.162943
0.226412
0.267329
0.166818
0.142238
0.100717
0.0581984
0.0316155
0.0581987
0.100717
0.142236
0.166816
0.100569
0.0867146
0.0606856
0.0347476
0.0192795
0.0347478
0.0606854
0.0867135
0.100568
0.0588762
0.0515511
0.0357629
0.020326
0.0115127
0.0203261
0.0357629
0.0515504
0.0588752
0.033526
0.0299422
0.0206296
0.0116433
0.0067256
0.0116434
0.0206296
0.0299417
0.0335254
0.0185489
0.0169876
0.0116345
0.00651386
0.00383374
0.00651396
0.0116345
0.0169873
0.0185485
0.0099373
0.00939816
0.00639468
0.00353879
0.00212043
0.00353888
0.00639474
0.00939801
0.00993706
0.00512722
0.00505974
0.00340702
0.00184348
0.00112338
0.00184355
0.00340709
0.00505966
0.00512709
0.00253092
0.0026505
0.0017465
0.00089517
0.000553426
0.00089523
0.00174656
0.00265046
0.00253084
0.00118908
0.0013592
0.000854737
0.000372494
0.00020944
0.000372539
0.000854792
0.00135919
0.00118904
0.000525426
0.000689433
0.000392649
0.000110225
8.52702e-05
0.000110251
0.000392696
0.000689436
0.000525414
0.000191836
0.000339585
0.000151481
-2.82064e-05
-2.51314e-05
-2.81935e-05
0.000151522
0.000339595
0.000191835
3.28491e-05
0.00015728
4.08659e-05
-6.6423e-05
-3.98951e-05
-6.64131e-05
4.09037e-05
0.000157292
3.28505e-05
-3.80627e-05
6.22206e-05
-5.69484e-06
-6.71404e-05
-3.76111e-05
-6.7129e-05
-5.65695e-06
6.22349e-05
-3.8063e-05
-6.75347e-05
1.17287e-05
-2.53453e-05
-5.91662e-05
-3.23318e-05
-5.91534e-05
-2.53085e-05
1.17435e-05
-6.75373e-05
-7.62846e-05
-1.44254e-05
-3.25026e-05
-4.95834e-05
-2.69402e-05
-4.95698e-05
-3.24685e-05
-1.44111e-05
-7.62892e-05
-7.45265e-05
-2.6682e-05
-3.34471e-05
-4.05531e-05
-2.21018e-05
-4.05395e-05
-3.34165e-05
-2.66688e-05
-7.45323e-05
-6.7665e-05
-3.09244e-05
-3.12822e-05
-3.26277e-05
-1.79137e-05
-3.26144e-05
-3.12554e-05
-3.09127e-05
-6.76715e-05
-5.87203e-05
-3.06699e-05
-2.76828e-05
-2.59181e-05
-1.43646e-05
-2.59054e-05
-2.76594e-05
-3.06597e-05
-5.8727e-05
-4.93865e-05
-2.8061e-05
-2.35887e-05
-2.03534e-05
-1.14004e-05
-2.03415e-05
-2.35685e-05
-2.80524e-05
-4.93931e-05
-4.05749e-05
-2.43889e-05
-1.95129e-05
-1.57893e-05
-8.94399e-06
-1.5778e-05
-1.94953e-05
-2.43815e-05
-4.05813e-05
-3.27335e-05
-2.04074e-05
-1.57058e-05
-1.20547e-05
-6.90847e-06
-1.20438e-05
-1.56902e-05
-2.0401e-05
-3.27397e-05
-2.60524e-05
-1.65401e-05
-1.22552e-05
-8.97291e-06
-5.2029e-06
-8.96206e-06
-1.22409e-05
-1.65343e-05
-2.60583e-05
-2.06001e-05
-1.30308e-05
-9.14235e-06
-6.3783e-06
-3.73888e-06
-6.36709e-06
-9.12831e-06
-1.3025e-05
-2.06059e-05
-1.64963e-05
-1.01232e-05
-6.4615e-06
-4.24156e-06
-2.50997e-06
-4.23077e-06
-6.44825e-06
-1.01173e-05
-1.65024e-05
-1.36459e-05
-9.05234e-06
-5.91445e-06
-3.85769e-06
-2.28737e-06
-3.84271e-06
-5.89819e-06
-9.04873e-06
-1.36521e-05
-1.13048e-05
-8.75807e-06
-6.31869e-06
-4.14124e-06
-2.44016e-06
-4.12464e-06
-6.30486e-06
-8.75612e-06
-1.13106e-05
-8.19954e-06
-7.47194e-06
-6.18835e-06
-4.22994e-06
-2.5049e-06
-4.21098e-06
-6.17628e-06
-7.47133e-06
-8.20433e-06
0.982106
0.789841
0.517572
0.288331
0.138325
0.288332
0.517572
0.78984
0.982106
0.992618
0.780897
0.490617
0.264978
0.126541
0.264979
0.490616
0.780895
0.992617
0.911525
0.67835
0.409681
0.213852
0.102066
0.213853
0.40968
0.678348
0.911523
0.729317
0.532696
0.312383
0.157085
0.0750373
0.157086
0.312383
0.532694
0.729314
0.519882
0.381119
0.219625
0.107423
0.0517437
0.107423
0.219625
0.381117
0.519879
0.344612
0.255117
0.145247
0.0698704
0.0341673
0.0698705
0.145248
0.255116
0.34461
0.217714
0.162943
0.0920477
0.0438748
0.0218732
0.0438748
0.0920479
0.162942
0.217712
0.132667
0.100717
0.0566296
0.0268508
0.0136689
0.0268507
0.0566298
0.100716
0.132665
0.0784908
0.0606854
0.0340558
0.0160935
0.00836583
0.0160934
0.034056
0.0606849
0.0784898
0.0452137
0.0357628
0.0200814
0.00946535
0.00501995
0.00946522
0.0200815
0.0357625
0.045213
0.0253527
0.0206295
0.0116185
0.00546277
0.00295193
0.00546265
0.0116186
0.0206294
0.0253523
0.0137936
0.0116344
0.00658958
0.00308941
0.00169849
0.00308931
0.00658965
0.0116344
0.0137934
0.00722823
0.00639465
0.00365636
0.00170803
0.000954194
0.00170796
0.0036564
0.00639464
0.00722812
0.00359615
0.003407
0.00198057
0.000920573
0.000522543
0.000920523
0.0019806
0.00340701
0.00359611
0.00165303
0.00174648
0.00104766
0.000483171
0.000280721
0.000483141
0.00104768
0.00174651
0.00165303
0.000666698
0.000854731
0.000546137
0.000249661
0.000157268
0.000249646
0.000546154
0.000854762
0.000666723
0.000209886
0.000392645
0.000285363
0.000129318
9.8097e-05
0.000129315
0.000285379
0.000392687
0.00020992
-1.64888e-05
0.000151479
0.000144544
5.41782e-05
3.72285e-05
5.41818e-05
0.000144561
0.000151525
-1.6462e-05
-9.11052e-05
4.08647e-05
6.77603e-05
1.49178e-05
9.32036e-06
1.49254e-05
6.77814e-05
4.09103e-05
-9.10814e-05
-0.00010333
-5.69542e-06
2.63732e-05
-3.16049e-06
-2.13e-06
-3.14998e-06
2.63972e-05
-5.65307e-06
-0.000103311
-9.72115e-05
-2.53456e-05
3.92082e-06
-1.12019e-05
-6.93259e-06
-1.11894e-05
3.94593e-06
-2.53079e-05
-9.71959e-05
-8.5214e-05
-3.25027e-05
-7.79869e-06
-1.42108e-05
-8.6827e-06
-1.4197e-05
-7.7736e-06
-3.24706e-05
-8.52023e-05
-7.20558e-05
-3.34471e-05
-1.32713e-05
-1.46092e-05
-8.91752e-06
-1.45948e-05
-1.32472e-05
-3.34203e-05
-7.20476e-05
-5.95083e-05
-3.12822e-05
-1.5091e-05
-1.36769e-05
-8.37667e-06
-1.36627e-05
-1.50686e-05
-3.12602e-05
-5.95029e-05
-4.82932e-05
-2.76827e-05
-1.48531e-05
-1.2129e-05
-7.46763e-06
-1.21152e-05
-1.48327e-05
-2.76648e-05
-4.829e-05
-3.86464e-05
-2.35887e-05
-1.35378e-05
-1.03633e-05
-6.41717e-06
-1.03505e-05
-1.35196e-05
-2.35742e-05
-3.86448e-05
-3.05601e-05
-1.95129e-05
-1.1732e-05
-8.59767e-06
-5.35049e-06
-8.58595e-06
-1.17161e-05
-1.95012e-05
-3.05596e-05
-2.39106e-05
-1.57057e-05
-9.77121e-06
-6.93666e-06
-4.32971e-06
-6.92626e-06
-9.7575e-06
-1.56963e-05
-2.39109e-05
-1.85321e-05
-1.22552e-05
-7.83855e-06
-5.41751e-06
-3.3791e-06
-5.40869e-06
-7.82696e-06
-1.22474e-05
-1.85329e-05
-1.42576e-05
-9.14234e-06
-6.04915e-06
-4.05092e-06
-2.51131e-06
-4.04418e-06
-6.03989e-06
-9.13541e-06
-1.42588e-05
-1.09809e-05
-6.46149e-06
-4.65765e-06
-2.8938e-06
-1.77962e-06
-2.88939e-06
-4.65165e-06
-6.45602e-06
-1.0983e-05
-9.213e-06
-5.91445e-06
-5.91382e-06
-9.21705e-06
-8.07241e-06
-6.3187e-06
-5.33506e-06
-3.86287e-06
-2.3399e-06
-3.84425e-06
-5.32421e-06
-6.31699e-06
-8.07642e-06
-6.48806e-06
-6.18836e-06
-5.42664e-06
-3.92907e-06
-2.36599e-06
-3.90204e-06
-5.4114e-06
-6.18693e-06
-6.49195e-06
-5.17361e-06
-3.76558e-06
-2.29236e-06
-3.73078e-06
-5.14992e-06
-4.72324e-06
-3.46097e-06
-2.12996e-06
-3.42312e-06
-4.70171e-06
-4.29184e-06
-3.15519e-06
-1.95959e-06
-3.1181e-06
-4.2714e-06
-3.89165e-06
-2.86752e-06
-1.79523e-06
-2.83229e-06
-3.8725e-06
-3.52539e-06
-2.60276e-06
-1.64174e-06
-2.56973e-06
-3.50747e-06
-3.19167e-06
-2.36073e-06
-1.49983e-06
-2.32993e-06
-3.17493e-06
-2.88817e-06
-2.14007e-06
-1.36912e-06
-2.11145e-06
-2.87257e-06
-2.61243e-06
-1.93915e-06
-1.24896e-06
-1.91262e-06
-2.59793e-06
-2.3621e-06
-1.75637e-06
-1.13865e-06
-1.73182e-06
-2.34863e-06
-2.13561e-06
-1.59063e-06
-1.03773e-06
-1.56795e-06
-2.12313e-06
-1.93162e-06
-1.44118e-06
-9.4611e-07
-1.42022e-06
-1.92003e-06
-1.73631e-06
-1.29697e-06
-8.56324e-07
-1.27761e-06
-1.72557e-06
0.806471
0.575124
0.288331
0.103557
0.0349278
0.103558
0.288331
0.575124
0.806471
0.802782
0.553175
0.264978
0.0925138
0.0317894
0.0925146
0.264978
0.553174
0.802781
0.688085
0.459586
0.213852
0.0737013
0.0259253
0.0737017
0.213852
0.459586
0.688083
0.51672
0.341324
0.157085
0.0539156
0.0194593
0.0539158
0.157086
0.341324
0.516718
0.352138
0.233858
0.107423
0.0368914
0.0137039
0.0368913
0.107423
0.233858
0.352137
0.226211
0.152044
0.0698702
0.0240736
0.00922231
0.0240733
0.0698706
0.152043
0.22621
0.139853
0.0953373
0.0438747
0.0151866
0.00600168
0.0151861
0.043875
0.0953371
0.139852
0.0839497
0.0581979
0.0268507
0.00933792
0.00380165
0.00933725
0.0268509
0.0581978
0.0839489
0.0491223
0.0347473
0.0160934
0.00561889
0.00235038
0.00561814
0.0160936
0.0347473
0.0491219
0.028042
0.0203257
0.00946532
0.00331247
0.00141851
0.00331171
0.00946538
0.0203259
0.0280418
0.0155858
0.0116431
0.00546275
0.00191136
0.000834072
0.00191065
0.00546275
0.0116433
0.0155857
0.00838495
0.00651378
0.0030894
0.00107653
0.000475739
0.00107592
0.00308936
0.00651393
0.00838493
0.00430893
0.00353875
0.00170802
0.00058901
0.000261145
0.000588497
0.00170797
0.00353889
0.00430897
0.00204686
0.00184345
0.000920569
0.000310638
0.000135903
0.000310229
0.000920509
0.00184358
0.00204692
0.000817905
0.000895157
0.000483169
0.000156162
6.52666e-05
0.000155847
0.000483118
0.000895273
0.000817972
0.000157019
0.000372487
0.000249659
7.50198e-05
2.97018e-05
7.47835e-05
0.000249628
0.000372599
0.000157078
-1.05885e-05
0.000110222
0.000129317
3.75842e-05
1.81329e-05
3.7411e-05
0.000129309
0.000110307
-1.05828e-05
-0.000114616
-2.82073e-05
5.41775e-05
1.75919e-05
9.61197e-06
1.74629e-05
5.41802e-05
-2.81535e-05
-0.000114635
-0.000119359
-6.64231e-05
1.49174e-05
5.13645e-06
2.90686e-06
5.03598e-06
1.49193e-05
-6.63795e-05
-0.000119373
-0.000102287
-6.71403e-05
-3.16067e-06
-2.30788e-06
-1.44246e-06
-2.38769e-06
-3.16269e-06
-6.71025e-05
-0.000102288
-8.383e-05
-5.9166e-05
-1.1202e-05
-6.28918e-06
-3.84932e-06
-6.35235e-06
-1.12055e-05
-5.91358e-05
-8.38237e-05
-6.71867e-05
-4.95832e-05
-1.42107e-05
-8.0074e-06
-4.92565e-06
-8.05631e-06
-1.42138e-05
-4.95594e-05
-6.71781e-05
-5.31924e-05
-4.0553e-05
-1.46091e-05
-8.34905e-06
-5.17775e-06
-8.38607e-06
-1.46107e-05
-4.05342e-05
-5.31838e-05
-4.17341e-05
-3.26276e-05
-1.36769e-05
-7.93595e-06
-4.9645e-06
-7.96335e-06
-1.36771e-05
-3.26127e-05
-4.17265e-05
-3.25073e-05
-2.5918e-05
-1.21289e-05
-7.13548e-06
-4.50488e-06
-7.15523e-06
-1.2128e-05
-2.59063e-05
-3.2501e-05
-2.51689e-05
-2.03534e-05
-1.03633e-05
-6.18417e-06
-3.93985e-06
-6.19809e-06
-1.03616e-05
-2.03441e-05
-2.51639e-05
-1.93901e-05
-1.57892e-05
-8.59763e-06
-5.21694e-06
-3.35277e-06
-5.22655e-06
-8.59574e-06
-1.57819e-05
-1.93862e-05
-1.48772e-05
-1.20547e-05
-6.93663e-06
-4.30213e-06
-2.78748e-06
-4.30867e-06
-6.93501e-06
-1.20489e-05
-1.48744e-05
-1.13777e-05
-8.97288e-06
-5.41748e-06
-3.463e-06
-2.25978e-06
-3.46742e-06
-5.41666e-06
-8.96859e-06
-1.13757e-05
-8.67113e-06
-6.37828e-06
-4.0509e-06
-2.68913e-06
-1.76228e-06
-2.69189e-06
-4.05139e-06
-6.37561e-06
-8.67007e-06
-6.62255e-06
-4.24155e-06
-2.8938e-06
-1.92848e-06
-1.25807e-06
-1.92902e-06
-2.89501e-06
-4.24191e-06
-6.62313e-06
-5.61845e-06
-3.85769e-06
-3.86137e-06
-5.62085e-06
-5.05434e-06
-4.14125e-06
-3.86287e-06
-3.32664e-06
-2.29547e-06
-3.30835e-06
-3.85555e-06
-4.14167e-06
-5.0565e-06
-4.3053e-06
-4.22995e-06
-3.92908e-06
-3.29058e-06
-2.23052e-06
-3.26172e-06
-3.91656e-06
-4.2286e-06
-4.30769e-06
-3.76558e-06
-3.10019e-06
-2.10173e-06
-3.06184e-06
-3.7445e-06
-3.46097e-06
-2.84335e-06
-1.93732e-06
-2.80287e-06
-3.4424e-06
-3.1552e-06
-2.5888e-06
-1.77369e-06
-2.54996e-06
-3.13764e-06
-2.86752e-06
-2.35142e-06
-1.61981e-06
-2.31513e-06
-2.85119e-06
-2.60276e-06
-2.13351e-06
-1.47752e-06
-2.09996e-06
-2.58757e-06
-2.36073e-06
-1.93459e-06
-1.34669e-06
-1.90369e-06
-2.34664e-06
-2.14007e-06
-1.75339e-06
-1.22669e-06
-1.725e-06
-2.12702e-06
-1.93916e-06
-1.58851e-06
-1.11677e-06
-1.56247e-06
-1.92709e-06
-1.75638e-06
-1.4386e-06
-1.01617e-06
-1.41474e-06
-1.74525e-06
-1.59064e-06
-1.30273e-06
-9.24425e-07
-1.2809e-06
-1.58038e-06
-1.44119e-06
-1.18026e-06
-8.4131e-07
-1.16026e-06
-1.43174e-06
-1.29697e-06
-1.06193e-06
-7.5998e-07
-1.04358e-06
-1.28821e-06
0.44234
0.306545
0.138325
0.0349281
0.00490648
0.0349287
0.138326
0.306545
0.44234
0.426757
0.288221
0.126541
0.0317897
0.00509765
0.0317903
0.126542
0.288221
0.426756
0.354665
0.236207
0.102066
0.0259256
0.00474021
0.025926
0.102066
0.236207
0.354664
0.263792
0.174638
0.0750373
0.0194595
0.00401901
0.0194597
0.0750377
0.174638
0.263791
0.181188
0.12041
0.0517437
0.013704
0.00314307
0.0137042
0.0517443
0.12041
0.181186
0.11826
0.0793927
0.0341674
0.00922243
0.00231381
0.00922311
0.0341687
0.0793926
0.118258
0.0745904
0.0507261
0.0218732
0.00600176
0.00162503
0.00600288
0.0218753
0.0507266
0.0745892
0.0457731
0.0316153
0.0136689
0.00380171
0.00109679
0.00380289
0.0136713
0.0316162
0.045772
0.0273985
0.0192794
0.00836585
0.00235042
0.000713546
0.0023514
0.00836821
0.0192806
0.0273975
0.0159953
0.0115126
0.00501997
0.00141854
0.000447323
0.00141924
0.00502201
0.0115138
0.0159946
0.00908508
0.00672555
0.00295194
0.000834087
0.000269182
0.000834525
0.00295358
0.0067267
0.00908451
0.00499053
0.00383371
0.0016985
0.000475749
0.000154025
0.00047599
0.00169974
0.0038347
0.00499014
0.00261465
0.00212041
0.000954199
0.00026115
8.20129e-05
0.000261258
0.00095511
0.00212121
0.00261439
0.00125694
0.00112337
0.000522546
0.000135906
3.83939e-05
0.000135935
0.0005232
0.00112399
0.00125678
0.000477535
0.000553421
0.000280723
6.52683e-05
1.27711e-05
6.52574e-05
0.000281192
0.000553865
0.000477448
1.1455e-05
0.000209438
0.000157269
2.97028e-05
-1.27303e-06
2.96797e-05
0.00015761
0.000209705
1.1409e-05
4.89552e-05
8.52693e-05
9.80969e-05
1.81334e-05
-6.44033e-06
1.81116e-05
9.83272e-05
8.53445e-05
4.8902e-05
-5.1472e-05
-2.51313e-05
3.72285e-05
9.61221e-06
-7.41791e-06
9.58558e-06
3.73763e-05
-2.51219e-05
-5.15197e-05
-4.7655e-05
-3.98949e-05
9.32036e-06
2.90698e-06
-7.24153e-06
2.86885e-06
9.42636e-06
-3.98827e-05
-4.76909e-05
-4.30469e-05
-3.76109e-05
-2.12996e-06
-1.44241e-06
-6.81861e-06
-1.4898e-06
-2.05032e-06
-3.75917e-05
-4.30714e-05
-3.63964e-05
-3.23316e-05
-6.93254e-06
-3.8493e-06
-6.26041e-06
-3.8992e-06
-6.87397e-06
-3.2308e-05
-3.64117e-05
-3.0171e-05
-2.694e-05
-8.68265e-06
-4.92565e-06
-5.60756e-06
-4.97297e-06
-8.64032e-06
-2.6916e-05
-3.01798e-05
-2.46503e-05
-2.21017e-05
-8.91747e-06
-5.17775e-06
-4.91362e-06
-5.2198e-06
-8.88725e-06
-2.20794e-05
-2.46548e-05
-1.9909e-05
-1.79136e-05
-8.37663e-06
-4.9645e-06
-4.23065e-06
-5.00025e-06
-8.35544e-06
-1.78941e-05
-1.99109e-05
-1.59287e-05
-1.43645e-05
-7.4676e-06
-4.50489e-06
-3.58534e-06
-4.53432e-06
-7.45317e-06
-1.43481e-05
-1.59291e-05
-1.26451e-05
-1.14004e-05
-6.41714e-06
-3.93986e-06
-2.9962e-06
-3.96357e-06
-6.40783e-06
-1.1387e-05
-1.26447e-05
-9.97592e-06
-8.94396e-06
-5.35047e-06
-3.35278e-06
-2.47062e-06
-3.37157e-06
-5.3452e-06
-8.93341e-06
-9.97523e-06
-7.83381e-06
-6.90845e-06
-4.3297e-06
-2.78749e-06
-2.00722e-06
-2.80214e-06
-4.32788e-06
-6.90057e-06
-7.83306e-06
-6.13135e-06
-5.20289e-06
-3.37909e-06
-2.25979e-06
-1.59686e-06
-2.27092e-06
-3.38056e-06
-5.19779e-06
-6.13077e-06
-4.77562e-06
-3.73887e-06
-2.5113e-06
-1.76228e-06
-1.22095e-06
-1.77008e-06
-2.51591e-06
-3.73729e-06
-4.7757e-06
-3.71165e-06
-2.50996e-06
-1.77962e-06
-1.25807e-06
-8.46426e-07
-1.26214e-06
-1.78579e-06
-2.51377e-06
-3.71358e-06
-3.18273e-06
-2.28737e-06
-2.29569e-06
-3.1865e-06
-2.89443e-06
-2.44016e-06
-2.3399e-06
-2.29548e-06
-1.88492e-06
-2.29654e-06
-2.34465e-06
-2.44644e-06
-2.89845e-06
-2.52808e-06
-2.50491e-06
-2.36599e-06
-2.23052e-06
-1.79901e-06
-2.22746e-06
-2.36851e-06
-2.51117e-06
-2.53334e-06
-2.29237e-06
-2.10173e-06
-1.66984e-06
-2.09016e-06
-2.28845e-06
-2.12996e-06
-1.93732e-06
-1.53087e-06
-1.92086e-06
-2.12758e-06
-1.95959e-06
-1.77369e-06
-1.39908e-06
-1.75635e-06
-1.95725e-06
-1.79524e-06
-1.61981e-06
-1.2774e-06
-1.6029e-06
-1.79315e-06
-1.64175e-06
-1.47752e-06
-1.16559e-06
-1.46149e-06
-1.63989e-06
-1.49983e-06
-1.34669e-06
-1.06302e-06
-1.33165e-06
-1.4982e-06
-1.36912e-06
-1.22669e-06
-9.69e-07
-1.21264e-06
-1.3677e-06
-1.24897e-06
-1.11677e-06
-8.82883e-07
-1.10368e-06
-1.24774e-06
-1.13865e-06
-1.01618e-06
-8.04059e-07
-1.00401e-06
-1.1376e-06
-1.03773e-06
-9.24427e-07
-7.3213e-07
-9.13128e-07
-1.03683e-06
-9.46113e-07
-8.41311e-07
-6.66936e-07
-8.30819e-07
-9.45353e-07
-8.56326e-07
-7.59982e-07
-6.02629e-07
-7.50127e-07
-8.55643e-07
0.806473
0.575125
0.288332
0.103559
0.034929
0.103559
0.288332
0.575125
0.806472
0.802784
0.553176
0.264979
0.0925152
0.0317905
0.0925159
0.264979
0.553175
0.802783
0.688087
0.459587
0.213853
0.0737023
0.0259262
0.073703
0.213853
0.459587
0.688085
0.516722
0.341326
0.157086
0.0539163
0.0194599
0.053917
0.157086
0.341325
0.51672
0.352141
0.23386
0.107423
0.0368917
0.0137044
0.036893
0.107424
0.233859
0.352139
0.226213
0.152045
0.0698708
0.0240736
0.00922322
0.0240767
0.0698724
0.152044
0.226211
0.139855
0.0953383
0.0438751
0.0151863
0.00600295
0.0151911
0.0438782
0.0953369
0.139853
0.0839509
0.0581985
0.0268509
0.00933742
0.00380295
0.0093429
0.0268552
0.0581973
0.0839497
0.0491232
0.0347477
0.0160935
0.00561825
0.00235143
0.0056235
0.0160981
0.0347468
0.0491223
0.0280426
0.0203261
0.0094653
0.00331178
0.00141926
0.00331631
0.00946961
0.0203254
0.0280419
0.0155862
0.0116434
0.0054627
0.0019107
0.000834539
0.00191435
0.00546642
0.011643
0.0155856
0.00838523
0.00651395
0.00308935
0.00107594
0.000475998
0.00107877
0.00309237
0.00651381
0.00838482
0.00430913
0.00353888
0.00170798
0.000588512
0.000261263
0.00059063
0.00171033
0.00353887
0.00430884
0.002047
0.00184355
0.000920534
0.000310237
0.000135938
0.0003118
0.000922311
0.00184362
0.0020468
0.000817996
0.000895231
0.000483147
0.000155851
6.52588e-05
0.000157005
0.000484453
0.000895335
0.000817864
0.00015707
0.000372539
0.000249649
7.47861e-05
2.96805e-05
7.56525e-05
0.000250591
0.000372651
0.000156991
-1.05732e-05
0.000110252
0.000129317
3.74125e-05
1.81121e-05
3.80812e-05
0.000129988
0.000110329
-1.06323e-05
-0.000114617
-2.81931e-05
5.41826e-05
1.74638e-05
9.58586e-06
1.79912e-05
5.46831e-05
-2.81434e-05
-0.000114664
-0.000119368
-6.64128e-05
1.49258e-05
5.03648e-06
2.86902e-06
5.45089e-06
1.5328e-05
-6.63682e-05
-0.000119402
-0.000102289
-6.71287e-05
-3.14971e-06
-2.38742e-06
-1.4897e-06
-2.0702e-06
-2.81978e-06
-6.70844e-05
-0.000102313
-8.38289e-05
-5.91531e-05
-1.11892e-05
-6.3522e-06
-3.89915e-06
-6.11489e-06
-1.09217e-05
-5.91103e-05
-8.3845e-05
-6.71836e-05
-4.95697e-05
-1.41968e-05
-8.05623e-06
-4.97295e-06
-7.88158e-06
-1.39843e-05
-4.95306e-05
-6.71943e-05
-5.31884e-05
-4.05394e-05
-1.45947e-05
-8.38602e-06
-5.21979e-06
-8.25901e-06
-1.4429e-05
-4.05055e-05
-5.31955e-05
-4.17297e-05
-3.26143e-05
-1.36626e-05
-7.96333e-06
-5.00025e-06
-7.872e-06
-1.35357e-05
-3.2586e-05
-4.17346e-05
-3.25027e-05
-2.59054e-05
-1.21152e-05
-7.15523e-06
-4.53433e-06
-7.09035e-06
-1.20197e-05
-2.58825e-05
-3.25064e-05
-2.51644e-05
-2.03414e-05
-1.03505e-05
-6.1981e-06
-3.96358e-06
-6.15288e-06
-1.02799e-05
-2.03234e-05
-2.51673e-05
-1.93855e-05
-1.57779e-05
-8.58593e-06
-5.22657e-06
-3.37158e-06
-5.19611e-06
-8.5351e-06
-1.57641e-05
-1.93883e-05
-1.48727e-05
-1.20438e-05
-6.92625e-06
-4.30869e-06
-2.80215e-06
-4.2896e-06
-6.89125e-06
-1.20334e-05
-1.48755e-05
-1.13728e-05
-8.96206e-06
-5.40868e-06
-3.46743e-06
-2.27092e-06
-3.45749e-06
-5.38692e-06
-8.95484e-06
-1.1376e-05
-8.66539e-06
-6.36709e-06
-4.04418e-06
-2.6919e-06
-1.77009e-06
-2.68961e-06
-4.0345e-06
-6.3634e-06
-8.66946e-06
-6.61548e-06
-4.23077e-06
-2.88939e-06
-1.92903e-06
-1.26214e-06
-1.93232e-06
-2.892e-06
-4.23378e-06
-6.62165e-06
-5.61015e-06
-3.84271e-06
-3.85487e-06
-5.61945e-06
-5.04475e-06
-4.12465e-06
-3.84426e-06
-3.30836e-06
-2.29655e-06
-3.32274e-06
-3.85941e-06
-4.13875e-06
-5.05591e-06
-4.29453e-06
-4.211e-06
-3.90205e-06
-3.26173e-06
-2.22746e-06
-3.27693e-06
-3.92073e-06
-4.22957e-06
-4.30798e-06
-3.73079e-06
-3.06185e-06
-2.09016e-06
-3.06746e-06
-3.74453e-06
-3.42314e-06
-2.80288e-06
-1.92086e-06
-2.79874e-06
-3.43674e-06
-3.11812e-06
-2.54997e-06
-1.75635e-06
-2.5425e-06
-3.13062e-06
-2.83231e-06
-2.31514e-06
-1.60291e-06
-2.30663e-06
-2.84394e-06
-2.56974e-06
-2.09997e-06
-1.46149e-06
-2.09131e-06
-2.58057e-06
-2.32994e-06
-1.9037e-06
-1.33165e-06
-1.89522e-06
-2.34003e-06
-2.11146e-06
-1.725e-06
-1.21265e-06
-1.71682e-06
-2.12084e-06
-1.91262e-06
-1.56247e-06
-1.10369e-06
-1.55465e-06
-1.92135e-06
-1.73182e-06
-1.41475e-06
-1.00401e-06
-1.40731e-06
-1.73993e-06
-1.56795e-06
-1.2809e-06
-9.1313e-07
-1.27387e-06
-1.57548e-06
-1.42022e-06
-1.16026e-06
-8.30821e-07
-1.15362e-06
-1.42722e-06
-1.27761e-06
-1.04358e-06
-7.50129e-07
-1.03727e-06
-1.28416e-06
0.982105
0.789839
0.517571
0.288332
0.138326
0.288332
0.517571
0.789839
0.982105
0.992617
0.780894
0.490616
0.264979
0.126542
0.264979
0.490615
0.780894
0.992617
0.911523
0.678348
0.40968
0.213853
0.102067
0.213853
0.40968
0.678347
0.911523
0.729314
0.532693
0.312382
0.157086
0.0750379
0.157086
0.312382
0.532693
0.729313
0.51988
0.381117
0.219625
0.107424
0.0517445
0.107424
0.219624
0.381117
0.519879
0.344611
0.255116
0.145248
0.069871
0.0341688
0.0698723
0.145247
0.255115
0.34461
0.217713
0.162943
0.092048
0.0438753
0.0218754
0.0438781
0.0920467
0.162942
0.217712
0.132666
0.100717
0.0566299
0.0268512
0.0136714
0.0268551
0.0566287
0.100716
0.132666
0.0784905
0.0606852
0.034056
0.0160937
0.00836826
0.0160981
0.0340553
0.0606848
0.07849
0.0452136
0.0357627
0.0200816
0.00946549
0.00502204
0.00946961
0.0200812
0.0357624
0.0452132
0.0253527
0.0206296
0.0116186
0.00546281
0.0029536
0.00546641
0.0116186
0.0206293
0.0253524
0.0137937
0.0116345
0.00658968
0.0030894
0.00169976
0.00309237
0.00658989
0.0116344
0.0137935
0.0072283
0.00639473
0.00365643
0.00170799
0.000955118
0.00171033
0.00365674
0.00639465
0.00722815
0.00359622
0.00340708
0.00198061
0.000920523
0.000523205
0.000922311
0.00198096
0.00340705
0.00359611
0.0016531
0.00174656
0.00104769
0.000483126
0.000281194
0.000484453
0.00104804
0.00174655
0.00165302
0.000666754
0.000854792
0.000546159
0.000249633
0.000157612
0.000250591
0.000546485
0.000854811
0.000666698
0.000209925
0.000392697
0.000285382
0.000129312
9.83282e-05
0.000129988
0.000285684
0.000392729
0.000209881
-1.64654e-05
0.000151522
0.000144563
5.41819e-05
3.73769e-05
5.46832e-05
0.00014484
0.000151559
-1.64999e-05
-9.10895e-05
4.09043e-05
6.77827e-05
1.49203e-05
9.42671e-06
1.53281e-05
6.80294e-05
4.09413e-05
-9.11152e-05
-0.000103319
-5.65645e-06
2.63981e-05
-3.16211e-06
-2.0501e-06
-2.81965e-06
2.66101e-05
-5.62297e-06
-0.000103338
-9.72007e-05
-2.53081e-05
3.94659e-06
-1.12051e-05
-6.87383e-06
-1.09216e-05
4.12281e-06
-2.528e-05
-9.72155e-05
-8.52036e-05
-3.24682e-05
-7.77312e-06
-1.42136e-05
-8.64022e-06
-1.39842e-05
-7.63072e-06
-3.24461e-05
-8.52157e-05
-7.20462e-05
-3.34163e-05
-1.32469e-05
-1.46106e-05
-8.88718e-06
-1.4429e-05
-1.31342e-05
-3.33998e-05
-7.20567e-05
-5.94995e-05
-3.12552e-05
-1.50684e-05
-1.3677e-05
-8.3554e-06
-1.35356e-05
-1.49805e-05
-3.12435e-05
-5.95091e-05
-4.82853e-05
-2.76593e-05
-1.48326e-05
-1.21279e-05
-7.45314e-06
-1.20196e-05
-1.47649e-05
-2.76515e-05
-4.82943e-05
-3.86392e-05
-2.35684e-05
-1.35195e-05
-1.03616e-05
-6.40781e-06
-1.02798e-05
-1.34678e-05
-2.35637e-05
-3.86477e-05
-3.05535e-05
-1.94953e-05
-1.1716e-05
-8.59575e-06
-5.34519e-06
-8.53508e-06
-1.16768e-05
-1.94929e-05
-3.05618e-05
-2.39043e-05
-1.56902e-05
-9.75747e-06
-6.93502e-06
-4.32788e-06
-6.89123e-06
-9.72789e-06
-1.56895e-05
-2.39126e-05
-1.85257e-05
-1.22409e-05
-7.82695e-06
-5.41667e-06
-3.38056e-06
-5.38691e-06
-7.80508e-06
-1.22417e-05
-1.85343e-05
-1.42505e-05
-9.1283e-06
-6.03989e-06
-4.0514e-06
-2.51591e-06
-4.0345e-06
-6.0254e-06
-9.13047e-06
-1.42601e-05
-1.09726e-05
-6.44825e-06
-4.65165e-06
-2.89502e-06
-1.78579e-06
-2.892e-06
-4.64875e-06
-6.45327e-06
-1.09839e-05
-9.20418e-06
-5.8982e-06
-5.91213e-06
-9.21785e-06
-8.06421e-06
-6.30488e-06
-5.32423e-06
-3.85556e-06
-2.34466e-06
-3.85942e-06
-5.33397e-06
-6.31936e-06
-8.078e-06
-6.48124e-06
-6.17632e-06
-5.41143e-06
-3.91657e-06
-2.36852e-06
-3.92074e-06
-5.42445e-06
-6.19256e-06
-6.49408e-06
-5.14995e-06
-3.74451e-06
-2.28846e-06
-3.74453e-06
-5.16332e-06
-4.70174e-06
-3.44242e-06
-2.12759e-06
-3.43675e-06
-4.71391e-06
-4.27142e-06
-3.13766e-06
-1.95726e-06
-3.13063e-06
-4.28249e-06
-3.87252e-06
-2.8512e-06
-1.79315e-06
-2.84395e-06
-3.88271e-06
-3.50748e-06
-2.58758e-06
-1.6399e-06
-2.58058e-06
-3.51688e-06
-3.17495e-06
-2.34665e-06
-1.49821e-06
-2.34003e-06
-3.18362e-06
-2.87259e-06
-2.12703e-06
-1.36771e-06
-2.12084e-06
-2.88059e-06
-2.59794e-06
-1.9271e-06
-1.24775e-06
-1.92135e-06
-2.60533e-06
-2.34865e-06
-1.74525e-06
-1.13761e-06
-1.73994e-06
-2.35547e-06
-2.12314e-06
-1.58039e-06
-1.03683e-06
-1.57549e-06
-2.12944e-06
-1.92004e-06
-1.43174e-06
-9.45356e-07
-1.42722e-06
-1.92587e-06
-1.72558e-06
-1.28822e-06
-8.55646e-07
-1.28416e-06
-1.73108e-06
0.971955
0.876976
0.789839
0.575124
0.306545
0.575124
0.789839
0.876976
0.971955
0.979443
0.87764
0.780894
0.553174
0.288221
0.553175
0.780894
0.877639
0.979443
0.923791
0.802714
0.678347
0.459586
0.236207
0.459587
0.678347
0.802714
0.923791
0.782139
0.667653
0.532693
0.341324
0.174638
0.341325
0.532693
0.667652
0.782138
0.590715
0.500428
0.381117
0.233858
0.12041
0.233859
0.381117
0.500428
0.590714
0.409724
0.346404
0.255116
0.152044
0.0793927
0.152044
0.255115
0.346404
0.409723
0.267329
0.226411
0.162942
0.0953374
0.0507267
0.0953367
0.162942
0.226411
0.267328
0.166816
0.142236
0.100716
0.0581981
0.0316163
0.0581971
0.100716
0.142236
0.166816
0.100568
0.0867132
0.060685
0.0347475
0.0192806
0.0347467
0.0606848
0.086713
0.100567
0.0588753
0.0515503
0.0357625
0.020326
0.0115138
0.0203254
0.0357624
0.0515501
0.058875
0.0335254
0.0299416
0.0206294
0.0116434
0.00672672
0.011643
0.0206293
0.0299415
0.0335252
0.0185486
0.0169873
0.0116344
0.00651399
0.00383471
0.0065138
0.0116344
0.0169872
0.0185484
0.00993712
0.00939799
0.00639466
0.00353893
0.00212122
0.00353887
0.00639465
0.00939796
0.00993703
0.00512713
0.00505965
0.00340703
0.0018436