/*--------------------------------*- C++ -*----------------------------------*\
| =========                 |                                                 |
| \\      /  F ield         | OpenFOAM: The Open Source CFD Toolbox           |
|  \\    /   O peration     | Version:  5.x                                   |
|   \\  /    A nd           | Web:      www.OpenFOAM.org                      |
|    \\/     M anipulation  |                                                 |
\*---------------------------------------------------------------------------*/
FoamFile
{
    version     2.0;
    format      ascii;
    class       volScalarField;
    location    "0";
    object      thickness;
}
// * * * * * * * * * * * * * * * * * * * * * * * * * * * * * * * * * * * * * //

dimensions      [0 0 0 0 0 0 0];

internalField   uniform 0;

boundaryField
{
    allBoundary
    {
        type            fixedValue;
        value           nonuniform 0();
    }
    inlet
    {
        type            fixedValue;
        value           uniform 0;
    }
    outlet
    {
        type            fixedValue;
        value           nonuniform List<scalar> 
73
(
0
0
0
0
0
0
0
0
0
0
0
0
0
0
0
0
0
0
0
0
0
0
0
0
0
0
0
0
0
0
0
0
0
0
0
0
0
0
0
0
0
0
0
0
0
0
0
0
0
0
0
0
0
0
0
0
0
0
0.00421384
0.0100605
0.00421384
0.00483503
0.00428044
0.0111558
0.00658866
0.0153125
0.0153125
0.00181136
0.0111558
0.00428044
0.00181136
0.00658866
0.00483503
)
;
    }
    walls
    {
        type            fixedValue;
        value           nonuniform List<scalar> 
7348
(
0
0
0
0
0
0
0
0
0
0
0
0
0
0
0
0
0
0
0
0
0
0
0
0
0
0
0
0
0
0
0
0
0
0
0
0
0
0
0
0
0
0
0
0
0
0
0
0
0
0
0
0
0
0
0
0
0
0
0
0
0
0
0
0
0
0
0
0
0
0
0
0
0
0
0
0
0
0
0
0
0
0
0
0
0
0
0
0
0
0
0
0
0
0
0
0
0
0
0
0
0
0
0
0
0
0
0
0
0
0
0
0
0
0
0
0
0
0
0
0
0
0
0
0
0
0
0
0
0
0
0
0
0
0
0
0
0
0
0
0
0
0
0
0
0
0
0
0
0
0
0
0
0
0
0
0
0
0
0
0
0
0
0
0
0
0
0
0
0
0
0
0
0
0
0
0
0
0
0
0
0
0
0
0
0
0
0
0
0
0
0
0
0
0
0
0
0
0
0
0
0
0
0
0
0
0
0
0
0
0
0
0
0
0
0
0
0
0
0
0
0
0
0
0
0
0
0
0
0
0
0
0
0
0
0
0
0
0
0
0
0
0
0
0
0
0
0
0
0
0
0
0
0
0
0
0
0
0
0
0
0
0
0
0
0
0
0
0
0
0
0
0
0
0
0
0
0
0
0
0
0
0
0
0
0
0
0
0
0
0
0
0
0
0
0
0
0
0
0
0
0
0
0
0
0
0
0
0
0
0
0
0
0
0
0
0
0
0
0
0
0
0
0
0
0
0
0
0
0
0
0
0
0
0
0
0
0
0
0
0
0
0
0
0
0
0
0
0
0
0
0
0
0
0
0
0
0
0
0
0
0
0
0
0
0
0
0
0
0
0
0
0
0
0
0
0
0
0
0
0
0
0
0
0
0
0
0
0
0
0
0
0
0
0
0
0
0
0
0
0
0
0
0
0
0
0
0
0
0
0
0
0
0
0
0
0
0
0
0
0
0
0
0
0
0
0
0
0
0
0
0
0
0
0
0
0
0
0
0
0
0
0
0
0
0
0
0.00843619
0.0175444
0.0163953
0.0176834
0.0215565
0.0237478
0.0209906
0.0165335
0.0160372
0.0184855
0.025685
0.0232961
0.0195617
0.0185154
0.0161796
0.0158035
0.0158423
0.0163849
0.0159941
0.0157989
0.0157902
0.0158422
0.0163867
0.0160818
0.0173373
0.0196989
0.0270581
0.0306505
0.0306507
0.0270628
0.019719
0.0173412
0.00793761
0.00481072
0.012981
0.0152115
0.015302
0.0156428
0.0161558
0.0129507
0.00211149
0.0133828
0.0336033
0.0311412
0.0311261
0.0329787
0.035034
0.0347764
0.0309502
0.0309428
0.0348046
0.043071
0.036567
0.0379218
0.0376388
0.0312649
0.0308304
0.0308682
0.032101
0.0310091
0.0308164
0.0308024
0.0308676
0.0321069
0.0311369
0.0341426
0.0405938
0.0455463
0.047691
0.047692
0.0455771
0.0408113
0.0343003
0.0202443
0.00764811
0.0184807
0.0177238
0.0172871
0.0169945
0.0170824
0.0174612
0.0186374
0.0143026
0.00427535
0.00173143
0.0115333
0.0414817
0.0464627
0.0467337
0.0471258
0.0476465
0.0475392
0.0465778
0.0465714
0.0476512
0.0490866
0.048289
0.0483315
0.0481796
0.0468587
0.0464641
0.0465097
0.0468391
0.0466462
0.0464519
0.0464361
0.0465092
0.0468438
0.0467737
0.047535
0.0488787
0.0496489
0.0499052
0.049905
0.049628
0.0481739
0.04004
0.0225594
0.0171871
0.0206574
0.00720661
0.0192518
0.00590842
0.00545271
0.00189852
0.0160161
0.0249978
0.0201814
0.00742576
0.00545986
0.00181308
0.0222021
0.0362298
0.0295116
0.0148087
0.0061725
0.00562261
0.0228357
0.0374621
0.0301852
0.0164844
0.00822064
0.00728213
0.0289712
0.0417745
0.0355107
0.0217705
0.0108493
0.00865688
0.0404009
0.0481025
0.0458783
0.0291622
0.0113469
0.00892725
0.042259
0.0492241
0.0472659
0.0304079
0.00996679
0.00809293
0.0387387
0.0475328
0.0425031
0.0262342
0.00730373
0.00667012
0.0312481
0.04407
0.0314274
0.0182251
0.00717376
0.00639698
0.0311475
0.0443975
0.0340227
0.017635
0.00831471
0.006188
0.0341584
0.0448146
0.0389445
0.0197122
0.00531203
0.0019519
0.0219908
0.0291899
0.0263162
0.0138489
0.0123468
0.0433957
0.0494108
0.0497954
0.0498335
0.0498681
0.04986
0.0497875
0.0497871
0.0498675
0.0499605
0.0499118
0.0499235
0.049913
0.0498118
0.049779
0.0497839
0.0498155
0.0497978
0.0497784
0.0497772
0.0497839
0.0498157
0.0498075
0.0498634
0.0499549
0.0499905
0.0499989
0.0499986
0.0499632
0.0491216
0.0416189
0.0245653
0.0248928
0.0260913
0.00720196
0.0213111
0.00664239
0.00649929
0.00736034
0.0168361
0.0212239
0.0236669
0.0252766
0.0255516
0.0246793
0.0228219
0.0225111
0.0215947
0.0122683
0.00417615
0.0253517
0.0453419
0.0497117
0.0499908
0.0499969
0.0499976
0.0499975
0.0499958
0.0499958
0.0499976
0.0499995
0.0499981
0.0499987
0.0499985
0.049996
0.0499954
0.0499955
0.0499964
0.0499958
0.0499955
0.0499957
0.0499957
0.0499964
0.0499961
0.0499975
0.0499995
0.0499997
0.0499996
0.0499994
0.0499679
0.0490685
0.0410254
0.0230328
0.0267442
0.0271354
0.00687359
0.0204673
0.00633173
0.00625171
0.0161391
0.0239581
0.0247777
0.024967
0.025
0.0250002
0.0249986
0.0249821
0.0253671
0.0229066
0.0125335
0.00177629
0.0182273
0.0443959
0.0496247
0.0499739
0.0499976
0.0499999
0.0499999
0.0499999
0.0499999
0.0499996
0.0499915
0.0499714
0.0499724
0.049968
0.0499652
0.0499722
0.049968
0.049964
0.0499653
0.0499805
0.0499971
0.0499902
0.0499711
0.0499789
0.0499955
0.0499974
0.0499805
0.0499656
0.0499698
0.0499555
0.0489805
0.0406043
0.0225307
0.0208675
0.0215698
0.0063581
0.0190761
0.00590385
0.00579538
0.0146463
0.0240976
0.0256014
0.0292081
0.0367477
0.0378989
0.0339112
0.0260485
0.0239833
0.0182774
0.00459469
0.011543
0.042146
0.0485947
0.049405
0.0498965
0.0499877
0.0499913
0.0499914
0.049991
0.049969
0.0497126
0.0491827
0.0491612
0.0490701
0.0490137
0.0491512
0.0490688
0.0489824
0.049024
0.049421
0.0498658
0.049651
0.0491736
0.0493472
0.0497938
0.0498761
0.0494131
0.0490334
0.049151
0.0496752
0.0489424
0.0405598
0.0224379
0.0160467
0.0177088
0.00641267
0.0189222
0.00580369
0.00568875
0.00222111
0.0126865
0.0162523
0.0213462
0.0281831
0.0293925
0.0253934
0.0177992
0.0131018
0.00460648
0.00957125
0.0351112
0.0405162
0.0438905
0.0485444
0.0494978
0.049553
0.0495539
0.0495455
0.0492783
0.0467907
0.0417716
0.0417047
0.0410344
0.0407566
0.0416459
0.0410259
0.0406144
0.0408527
0.0440454
0.0481614
0.04595
0.0416712
0.0430635
0.0470348
0.0481689
0.0438816
0.0409036
0.0416289
0.0467472
0.0482574
0.0402292
0.0220731
0.0144394
0.0201763
0.0089635
0.00904159
0.00901051
0.00836568
0.00735655
0.0125841
0.0193224
0.00535356
0.0052366
0.0048922
0.0187112
0.0224646
0.0289806
0.0404338
0.0427058
0.0428605
0.0428635
0.0428372
0.0421561
0.0363899
0.0239575
0.0246706
0.0230533
0.0227634
0.0245769
0.0231191
0.0232824
0.0248731
0.0311453
0.0395882
0.0326784
0.0229426
0.0255535
0.0337164
0.0388662
0.0289139
0.0229472
0.0237595
0.0363446
0.0412663
0.0350689
0.0186885
0.00734402
0.0190293
0.0230678
0.0243443
0.0243289
0.0229603
0.0205812
0.0200635
0.0143559
0.00183111
0.00172065
0.00417613
0.0017762
0.0017303
0.00753342
0.0108368
0.0122945
0.025349
0.0181803
0.0109911
0.00769695
0.00199501
0.00905216
0.0274722
0.0398922
0.0432698
0.045335
0.0442208
0.0399564
0.0277762
0.0147877
0.00185067
0.00173242
0.0156842
0.0308317
0.0461734
0.0493853
0.049702
0.0492938
0.044949
0.0308668
0.0215933
0.00571993
0.00564244
0.0217026
0.0359847
0.047849
0.0498686
0.0499723
0.0493595
0.043062
0.030249
0.028038
0.00819309
0.00814381
0.0285985
0.0454517
0.0494676
0.0499778
0.0499779
0.0493153
0.0428447
0.0333441
0.0379793
0.010857
0.0107431
0.0261006
0.042444
0.0488859
0.0499419
0.0499773
0.0493139
0.0428501
0.0339818
0.040176
0.0115427
0.0114235
0.0181213
0.0314555
0.0469795
0.0498169
0.0499746
0.0493139
0.0428505
0.0340209
0.0403293
0.0115947
0.0114753
0.0160949
0.0309595
0.0465914
0.0497884
0.049974
0.0493139
0.0428505
0.0340215
0.0403323
0.0115958
0.0114764
0.0174092
0.033966
0.0474661
0.0498595
0.0499757
0.0493139
0.0428505
0.0340149
0.0403061
0.0115865
0.0114672
0.0193195
0.0376119
0.0481232
0.0499083
0.0499769
0.049314
0.0428469
0.0338162
0.0396394
0.011369
0.0112506
0.0170355
0.0313177
0.046902
0.0498143
0.0499749
0.0493261
0.0428628
0.0320848
0.0342744
0.00979463
0.00970087
0.0159412
0.0308303
0.0464633
0.0497787
0.0499803
0.0495003
0.0442541
0.0311641
0.0239235
0.00709759
0.00708828
0.0157955
0.0307989
0.0464325
0.0497769
0.0499866
0.049674
0.0461806
0.0362
0.0243224
0.00675112
0.00673792
0.0157887
0.0307981
0.046432
0.0497768
0.0499814
0.0495301
0.044209
0.0292534
0.0230246
0.0063553
0.00634991
0.0157886
0.0307981
0.046432
0.0497769
0.0499849
0.0495908
0.0450322
0.0307007
0.0224516
0.00612796
0.00611754
0.0157886
0.0307981
0.046432
0.0497768
0.0499758
0.0493747
0.0430448
0.0286147
0.0239472
0.00665621
0.00663067
0.0157887
0.0307981
0.046432
0.0497768
0.0499795
0.049458
0.0436688
0.0288834
0.0230933
0.00642717
0.00642415
0.015796
0.0307981
0.046432
0.0497769
0.0499837
0.0495466
0.0445645
0.0291459
0.0232206
0.00667714
0.00677912
0.0159436
0.0307981
0.046432
0.0497768
0.049975
0.0493399
0.0427613
0.0280452
0.0258128
0.0081987
0.00846872
0.0168132
0.0307981
0.046432
0.0497768
0.0499738
0.0493096
0.0427202
0.0304492
0.0302565
0.0099427
0.00994378
0.018244
0.0307981
0.046432
0.0497768
0.0499738
0.0493123
0.0428003
0.0327109
0.0365206
0.0106834
0.0104979
0.0187929
0.0307981
0.046432
0.0497768
0.0499737
0.0493039
0.0426104
0.0299088
0.0278806
0.00834128
0.00815534
0.0171154
0.0307982
0.046432
0.0497768
0.0499737
0.0492999
0.0425301
0.0282318
0.0228652
0.00624778
0.00621844
0.0160077
0.0308039
0.0464371
0.049777
0.0499737
0.0493002
0.0425351
0.0282564
0.0228429
0.00646433
0.00621794
0.0164719
0.0309426
0.0465721
0.0497871
0.0499739
0.0493083
0.0427058
0.0303043
0.0279356
0.00836556
0.00812382
0.0199865
0.0344828
0.0475078
0.049859
0.0499757
0.0493117
0.0427879
0.0325113
0.0355703
0.0102127
0.0100069
0.0199874
0.0344828
0.0475078
0.049859
0.0499754
0.0492932
0.042482
0.0291943
0.0277279
0.00818045
0.00811225
0.0165069
0.0309427
0.0465721
0.049787
0.0499727
0.049258
0.0421247
0.0259611
0.0222205
0.00629849
0.00627394
0.0164382
0.0308098
0.0464412
0.0497747
0.0499705
0.0492749
0.0423384
0.0273327
0.0233921
0.00690637
0.00688185
0.0189925
0.0309517
0.0465119
0.049645
0.0498193
0.0491612
0.0426844
0.0319765
0.0340613
0.0097698
0.00966415
0.0242149
0.0355017
0.0462326
0.0472309
0.0471469
0.0466161
0.0416705
0.0345736
0.0388103
0.0111271
0.0109903
0.0247647
0.0372831
0.0376702
0.0328621
0.0326332
0.0324688
0.0304437
0.0299986
0.0322517
0.00955516
0.00937226
0.0144201
0.0219586
0.0224216
0.0220198
0.0220122
0.0219937
0.0215619
0.0214071
0.0197844
0.00489168
0.00516847
0.00174049
0.00430871
0.00530571
0.00614295
0.00579527
0.00644963
0.00581695
0.00645443
0.0058174
0.00628515
0.00581668
0.00593277
0.00579703
0.00550106
0.00565761
0.00181045
0.00424316
0.0021288
0.00514464
0.00618886
0.00621815
0.00607118
0.00620599
0.00673613
0.00764695
0.00848295
0.00899488
0.00932273
0.00906615
0.00798844
0.00683435
0.00619382
0.00595698
0.00595789
0.00620483
0.0069195
0.0082544
0.00952122
0.00977812
0.00892981
0.00779619
0.00709828
0.00676714
0.00653213
0.00621835
0.00595419
0.00585781
0.00583486
0.00583406
0.00584918
0.00589977
0.00599586
0.00599586
0.00589977
0.00584914
0.00583355
0.00583041
0.00583041
0.00583355
0.00584914
0.00589982
0.00599645
0.00600086
0.00593072
0.00598788
0.00627516
0.00669576
0.00723042
0.00843169
0.00996426
0.0109518
0.0113917
0.0115038
0.0113917
0.0109519
0.00996446
0.00842933
0.00721888
0.00666338
0.00600701
0.00462871
0.00184318
0.00183991
0.00441823
0.00539953
0.00569746
0.00576335
0.00578709
0.00583762
0.00595464
0.00612364
0.00618112
0.0058004
0.00457106
0.00184515
0.00194383
0.00415441
0.0151309
0.0141
0.0230857
0.017168
0.0265498
0.0248767
0.0165673
0.0228243
0.0228614
0.0198332
0.0234474
0.025907
0.0224456
0.0267943
0.0259508
0.0237615
0.0293269
0.0318751
0.0179728
0.0277802
0.0236385
0.0160342
0.0228398
0.0225773
0.0165856
0.0225794
0.0228809
0.0222582
0.0262549
0.0323379
0.0260687
0.0363628
0.0358716
0.0205194
0.0298935
0.0270457
0.0191503
0.029216
0.0297258
0.0172432
0.0286291
0.0252583
0.0158718
0.0227256
0.0225141
0.0158005
0.0224688
0.0224666
0.0159942
0.0224933
0.0225945
0.0163849
0.0236496
0.0236496
0.0158422
0.0225945
0.0224932
0.0157902
0.0224655
0.0224599
0.0157989
0.0224599
0.0224655
0.0159943
0.0224932
0.0225946
0.0163992
0.0236516
0.0236596
0.016255
0.0226512
0.0227672
0.0187656
0.0253516
0.0290052
0.0227029
0.0308465
0.0342323
0.0295757
0.0387593
0.0413298
0.0309189
0.0424045
0.0426678
0.0295771
0.0424053
0.0413353
0.0227039
0.0387843
0.0343104
0.0189331
0.0310989
0.0297941
0.0139246
0.0271181
0.022213
0.00211307
0.0154807
0.00765042
0.00187244
0.00208346
0.00773731
0.00876915
0.0132718
0.0165943
0.0147224
0.01871
0.0196495
0.0152801
0.0197836
0.0196909
0.0153984
0.0196476
0.0197044
0.0160084
0.0198972
0.0202117
0.0154058
0.020399
0.0199701
0.0077092
0.0183876
0.0145705
0.00802355
0.00207479
0.0017497
0.00221058
0.0274141
0.011312
0.0294381
0.0330027
0.0387346
0.0411987
0.0309938
0.0410334
0.040889
0.0328662
0.0411135
0.0418439
0.0316483
0.0420346
0.0419631
0.0380865
0.0433032
0.0443257
0.0313393
0.0430909
0.04145
0.0308609
0.0408246
0.0406735
0.0313346
0.0408124
0.0414444
0.0402156
0.0432909
0.0457605
0.0421151
0.0471448
0.0466771
0.0347863
0.0446917
0.0439191
0.038807
0.0448445
0.0452505
0.0340206
0.0445564
0.0428353
0.0309258
0.0413421
0.0407861
0.0308215
0.0406218
0.0406071
0.0310092
0.040691
0.0409284
0.032101
0.0414013
0.0414013
0.0308675
0.0409282
0.0406898
0.0308024
0.0405985
0.0405732
0.0308164
0.0405732
0.0405985
0.0310099
0.0406899
0.0409294
0.0321304
0.0414101
0.041451
0.0313407
0.0411484
0.0414751
0.0381521
0.0429343
0.0448733
0.0430588
0.0463146
0.0475389
0.0470574
0.048588
0.0492097
0.0478435
0.0494618
0.04952
0.047064
0.0494621
0.0492115
0.0431581
0.0485917
0.0475117
0.0384551
0.0460273
0.0434618
0.0276304
0.0382827
0.0299189
0.012671
0.0220379
0.0149198
0.00181142
0.00460439
0.0146159
0.0132051
0.0191832
0.018606
0.0198189
0.0131555
0.0175304
0.0075766
0.00720379
0.0170813
0.00701748
0.00690706
0.0169983
0.00686182
0.00685471
0.0172518
0.00687343
0.00692486
0.0177348
0.00703691
0.00737008
0.0183035
0.0123479
0.0182726
0.00741593
0.0177293
0.0122501
0.00538206
0.00425892
0.0306283
0.0117614
0.0313066
0.0455719
0.0426646
0.0473511
0.0465856
0.0486978
0.0489798
0.047018
0.0490735
0.049169
0.0471839
0.049206
0.04923
0.0479652
0.0493619
0.0494499
0.0469008
0.0493262
0.0491304
0.0464926
0.0490217
0.0489924
0.0468996
0.0490196
0.0491299
0.0485742
0.049362
0.0496334
0.0489159
0.049779
0.0497276
0.0480432
0.0495611
0.0495028
0.0484784
0.0495892
0.0496351
0.0474922
0.0495401
0.0493245
0.0465596
0.0491203
0.0490168
0.0464566
0.0489835
0.0489815
0.0466463
0.049002
0.0490537
0.0468391
0.0491194
0.0491194
0.0465092
0.0490537
0.0490018
0.0464361
0.0489801
0.0489745
0.0464519
0.0489745
0.0489801
0.0466468
0.0490018
0.0490538
0.0468675
0.0491207
0.0491285
0.046939
0.0490971
0.0491493
0.0482972
0.0493362
0.0495689
0.0493165
0.04974
0.0498548
0.0498347
0.0499331
0.0499737
0.0499204
0.0499877
0.0499904
0.0498324
0.0499874
0.0499703
0.0491757
0.0499043
0.0496747
0.045656
0.0488887
0.0465036
0.0306228
0.0408734
0.0310102
0.0159677
0.0230046
0.016804
0.00638982
0.00804867
0.0228269
0.021221
0.0271523
0.0086278
0.0233276
0.00934766
0.0172711
0.00705
0.0175055
0.0146401
0.020404
0.0160607
0.00629947
0.00611221
0.00182595
0.00469152
0.00440991
0.00863007
0.0129718
0.00644882
0.0152656
0.0169344
0.00808339
0.0186467
0.0202772
0.00892711
0.0214333
0.0219785
0.00865767
0.0219786
0.0214346
0.00731654
0.020288
0.0187141
0.00617655
0.0172474
0.0163745
0.00598819
0.0160681
0.0159423
0.00456652
0.0152648
0.0127705
0.00719081
0.00174995
0.0017763
0.00577402
0.0323093
0.0182368
0.0349558
0.0480044
0.0444185
0.0483966
0.0497288
0.0496292
0.0499115
0.0498246
0.0499618
0.049972
0.049838
0.0499738
0.0499741
0.0498887
0.0499795
0.0499834
0.0498135
0.0499782
0.0499698
0.0497807
0.0499653
0.0499642
0.0498132
0.0499653
0.0499697
0.049929
0.0499792
0.0499898
0.0499479
0.0499949
0.0499925
0.0499015
0.0499863
0.0499849
0.0499353
0.0499894
0.0499917
0.0498613
0.0499878
0.0499785
0.0497867
0.0499696
0.0499652
0.0497786
0.049964
0.049964
0.0497978
0.0499649
0.0499676
0.0498155
0.0499712
0.0499712
0.0497839
0.0499676
0.0499649
0.0497772
0.049964
0.0499638
0.0497784
0.0499638
0.049964
0.0497979
0.0499649
0.0499676
0.0498173
0.0499712
0.0499714
0.0498188
0.049969
0.0499707
0.0499177
0.0499788
0.0499883
0.0499769
0.0499943
0.0499973
0.0499969
0.049999
0.0499997
0.0499992
0.0499999
0.0499999
0.0499938
0.0499997
0.0499966
0.0498023
0.0499713
0.0498198
0.0469132
0.0491475
0.0469414
0.0324573
0.0416415
0.0324662
0.0177437
0.0245694
0.0177528
0.00952316
0.0103415
0.0312113
0.0269131
0.0333811
0.0102496
0.0275214
0.0107119
0.00187971
0.00472397
0.0180506
0.00716862
0.0180062
0.0169618
0.0213196
0.0170071
0.0066473
0.00652515
0.0130347
0.0131507
0.0187577
0.019578
0.0216329
0.0230935
0.0224582
0.0238584
0.0243639
0.0246689
0.0247692
0.0249721
0.0255515
0.025
0.0250002
0.0252771
0.0250002
0.0250001
0.0237222
0.0249757
0.0248054
0.0221763
0.0245677
0.0245873
0.0217036
0.0244954
0.024077
0.0181628
0.0231788
0.0204987
0.00426955
0.0145624
0.00531156
0.0132759
0.00417615
0.0132758
0.0376791
0.0253505
0.0376765
0.048669
0.0453392
0.0486674
0.0499504
0.0497112
0.0499508
0.0499964
0.0499921
0.0499984
0.0499969
0.0499995
0.0499997
0.0499982
0.0499998
0.0499999
0.0499964
0.0499998
0.0499997
0.0499957
0.0499996
0.0499996
0.0499964
0.0499996
0.0499997
0.0499989
0.0499998
0.0499997
0.049999
0.0499991
0.0499977
0.0499979
0.0499964
0.0499962
0.049999
0.0499968
0.0499968
0.0499972
0.0499961
0.0499956
0.0499955
0.0499955
0.0499958
0.0499954
0.0499965
0.0499965
0.0499958
0.0499958
0.0499955
0.0499964
0.0499954
0.0499954
0.0499955
0.0499955
0.049996
0.0499956
0.0499973
0.0499987
0.0499957
0.0499994
0.0499994
0.049996
0.0499986
0.0499973
0.0499964
0.0499962
0.0499962
0.0499964
0.0499972
0.0499986
0.0499988
0.0499994
0.0499998
0.0499997
0.0499998
0.0499991
0.0499997
0.0499977
0.0499964
0.0499996
0.0499958
0.0499958
0.049996
0.049996
0.0499935
0.0498007
0.0499641
0.0497844
0.0466955
0.0490061
0.0465239
0.0310693
0.0407181
0.0308846
0.0168644
0.0226909
0.0162438
0.0102997
0.00943047
0.0330323
0.0244544
0.0302034
0.0105477
0.0249155
0.00973601
0.00607892
0.00632932
0.0172814
0.00655653
0.0165171
0.0163112
0.0195819
0.0155828
0.00605305
0.00596139
0.0217967
0.0168562
0.0228419
0.0245775
0.0250871
0.0256283
0.0248914
0.0257985
0.026133
0.0249972
0.0271233
0.0282047
0.0250002
0.0282075
0.0271384
0.0250001
0.0261904
0.0259783
0.024981
0.0260986
0.0260752
0.0253606
0.0258473
0.0259457
0.0247196
0.025566
0.0247423
0.0211951
0.0238133
0.0211951
0.00564496
0.0152689
0.00564496
0.00577391
0.0349338
0.0122945
0.0321868
0.0483823
0.0432698
0.0479237
0.0499152
0.0493853
0.0497513
0.049991
0.0498688
0.0499418
0.0499996
0.0499816
0.0499956
0.05
0.0499988
0.0499992
0.0499999
0.0499993
0.0499993
0.0499999
0.0499993
0.0499993
0.0499999
0.0499992
0.0499988
0.0499976
0.0499956
0.0499816
0.0499807
0.0499427
0.0498783
0.0499696
0.0498246
0.0498116
0.0499722
0.049824
0.0498223
0.0499652
0.0498011
0.0497862
0.049968
0.0497862
0.0498011
0.0499722
0.0498221
0.0498221
0.049965
0.0498009
0.0497847
0.049964
0.0497788
0.0497791
0.0499702
0.0497878
0.0498172
0.0499916
0.0498778
0.049943
0.0499966
0.0499767
0.0499723
0.0499795
0.049932
0.0498697
0.049971
0.049823
0.0498219
0.0499889
0.0498651
0.0499225
0.0499983
0.0499645
0.0499841
0.0499915
0.0499789
0.0499421
0.0499702
0.0498767
0.0498171
0.0499655
0.0497896
0.0497896
0.0499761
0.0498167
0.0498724
0.0497762
0.0499063
0.0497588
0.0464547
0.0489701
0.0464348
0.03082
0.0405726
0.0308021
0.0159344
0.0224719
0.0158155
0.00805051
0.00681642
0.0258673
0.0177332
0.022207
0.00851954
0.018826
0.00753585
0.00521744
0.00212278
0.0160586
0.00629543
0.0159055
0.015171
0.0188932
0.0150107
0.00584367
0.0057276
0.0210706
0.00853396
0.0156369
0.0251666
0.0197507
0.0215735
0.0260767
0.0224912
0.0235326
0.0321757
0.0270289
0.0310818
0.0288
0.0310947
0.0270971
0.0259657
0.0238213
0.023348
0.0263304
0.0237456
0.0236718
0.0254568
0.0229199
0.0224667
0.0241213
0.0220861
0.0217278
0.0204987
0.0208895
0.0181628
0.00531156
0.0123295
0.00426955
0.0307987
0.0108368
0.0290389
0.0470195
0.0398922
0.0445825
0.0490798
0.0461734
0.0469071
0.0497107
0.0478513
0.0489027
0.049969
0.0495621
0.049833
0.049991
0.04991
0.0499253
0.0499914
0.0499274
0.0499275
0.0499913
0.0499275
0.0499274
0.0499877
0.0499253
0.04991
0.0498967
0.0498331
0.0495627
0.049421
0.0489075
0.0478824
0.0491188
0.0470669
0.0468495
0.0491526
0.0469782
0.0469511
0.0490137
0.0467005
0.0465468
0.04907
0.0465468
0.0466999
0.0491511
0.0469458
0.0469454
0.0490062
0.0466959
0.0465245
0.0489847
0.0464601
0.0464692
0.0491527
0.0465888
0.0469884
0.0497146
0.0478984
0.0489233
0.0498392
0.0494308
0.0493125
0.0493741
0.0486442
0.0476928
0.0491674
0.0470292
0.0470039
0.0495971
0.0475823
0.0484164
0.0498953
0.0491057
0.0494975
0.0497075
0.0494574
0.0488798
0.0491513
0.0478564
0.0469799
0.0490334
0.0466183
0.0466183
0.0494092
0.0469798
0.0478558
0.0496735
0.0488673
0.0493392
0.0464206
0.048807
0.0463463
0.030796
0.0405093
0.0307761
0.0157415
0.0223509
0.0155487
0.00611173
0.00573988
0.0204459
0.0152782
0.0199838
0.00719786
0.0180357
0.00759022
0.00177868
0.00447097
0.00578927
0.00624436
0.00596261
0.0047177
0.00190247
0.0160732
0.00694979
0.0168453
0.0149504
0.0191279
0.0148217
0.00569795
0.00558934
0.0070373
0.00435106
0.0124117
0.0154444
0.0181749
0.0210726
0.0158508
0.0220236
0.0215252
0.00775933
0.0192451
0.0144742
0.00778435
0.00740729
0.00175843
0.00171826
0.0152393
0.00629376
0.0166044
0.023465
0.0222417
0.0242946
0.0238466
0.0247631
0.0245727
0.0186324
0.0235324
0.0206447
0.0149478
0.00429047
0.00421907
0.0146409
0.00541275
0.00535543
0.017276
0.00694075
0.0179328
0.024554
0.0232202
0.0246939
0.0247802
0.0249478
0.024883
0.0216595
0.02441
0.0225475
0.0178737
0.00604222
0.00595605
0.0170517
0.00678506
0.00651314
0.0190392
0.00814635
0.0203938
0.0248737
0.0247347
0.0249868
0.0249628
0.024999
0.0249964
0.0235209
0.0249574
0.0241995
0.0235133
0.00791622
0.0071556
0.0193786
0.00890272
0.00763959
0.0214608
0.00893032
0.0219837
0.0250002
0.0255535
0.0249999
0.0249973
0.0249966
0.0249727
0.0242163
0.0247968
0.0236224
0.0209252
0.0089167
0.00765418
0.018529
0.00798984
0.00722749
0.0219793
0.00865695
0.0214334
0.0249992
0.0252766
0.0249989
0.0249269
0.0249879
0.0249089
0.0228978
0.024456
0.0225499
0.0175314
0.00703176
0.00673504
0.0170044
0.00667095
0.0064907
0.0202777
0.00728302
0.0186521
0.024974
0.0236831
0.0247934
0.024924
0.0249716
0.0249262
0.0225309
0.0244582
0.0224413
0.0175427
0.00670132
0.00645032
0.0167988
0.00662619
0.0063817
0.0169607
0.00563497
0.0153314
0.024492
0.0214211
0.0242287
0.0249458
0.0251463
0.025201
0.0221806
0.0244827
0.0219958
0.016305
0.00633736
0.00620954
0.0161263
0.00610115
0.00605443
0.0130277
0.00181562
0.00861069
0.0234408
0.0167725
0.0215362
0.0251542
0.0237182
0.024405
0.021889
0.0239736
0.0216747
0.0159415
0.00601478
0.00600326
0.0159297
0.00598474
0.00598294
0.00460537
0.00177063
0.0182532
0.00704181
0.0126966
0.0228245
0.0166113
0.0191888
0.0208081
0.0198094
0.0179775
0.0127704
0.00569524
0.00569343
0.0127328
0.00456646
0.00456183
0.0045945
0.012516
0.00176991
0.00418621
0.0120705
0.00482676
0.00413544
0.00174995
0.00185222
0.001849
0.00172498
0.0256246
0.00753342
0.0201247
0.0391116
0.0274722
0.0301973
0.0415649
0.0308317
0.0314291
0.0467827
0.036002
0.0425609
0.0492781
0.0459991
0.0473991
0.0495455
0.047829
0.0479276
0.0495539
0.0479443
0.0479464
0.049553
0.0479464
0.0479443
0.0494978
0.0479276
0.047829
0.0485455
0.0473993
0.0460002
0.0439359
0.0425675
0.0360283
0.0413041
0.0315375
0.0312349
0.0416562
0.0325062
0.0324777
0.0407567
0.0310745
0.0309066
0.0410331
0.0309065
0.0310737
0.0416449
0.0324687
0.0324681
0.0407194
0.0310695
0.0308855
0.0406337
0.030826
0.0308382
0.0416581
0.0309694
0.0314788
0.0468887
0.0364119
0.0429902
0.0477631
0.0452625
0.0442511
0.0433781
0.0405519
0.0348942
0.0416091
0.0314672
0.031425
0.0452259
0.0343368
0.0388214
0.0481744
0.0422875
0.0447964
0.0466883
0.0450621
0.0423056
0.0416276
0.0359596
0.0314556
0.0409036
0.0309985
0.0309986
0.0438942
0.0314568
0.0360017
0.0483222
0.0425258
0.0457815
0.0459616
0.0464074
0.0444212
0.0306655
0.0390316
0.0301578
0.0149266
0.0213187
0.0132151
0.00528713
0.00420614
0.0198901
0.0122662
0.0185204
0.0139572
0.0216328
0.0217155
0.00894921
0.0212924
0.0217234
0.00907015
0.0220406
0.022127
0.0088008
0.021994
0.0215105
0.00777947
0.0204957
0.0191119
0.0074941
0.0180551
0.0180103
0.0190334
0.0195781
0.0206567
0.0142351
0.0182521
0.0122273
0.00437688
0.00420192
0.0131967
0.0017303
0.00475775
0.0214199
0.00905216
0.0134171
0.0236333
0.0156844
0.0178846
0.0363741
0.0217259
0.026228
0.0421559
0.0291867
0.0305432
0.0428372
0.0309962
0.0311081
0.0428635
0.0311285
0.0311312
0.0428605
0.0311312
0.0311285
0.0427058
0.0311081
0.0309963
0.0404359
0.030544
0.0291922
0.0290627
0.0262625
0.0219018
0.0234164
0.018555
0.0176103
0.0245965
0.0179546
0.0178049
0.0227637
0.0169084
0.016392
0.0230504
0.0163912
0.0169019
0.0245904
0.0177687
0.0177977
0.0229818
0.0170461
0.0168425
0.0239748
0.0174594
0.0188334
0.0259518
0.0205717
0.0224865
0.0376903
0.025349
0.0280876
0.0377193
0.0286261
0.0266388
0.0262981
0.0224838
0.018515
0.0228641
0.0166903
0.0164924
0.0295119
0.0176255
0.0193007
0.0379171
0.0225488
0.0264382
0.0359287
0.0276231
0.0257726
0.0237505
0.0216789
0.018149
0.0229481
0.0167455
0.0167473
0.0290019
0.0181658
0.0217807
0.0402356
0.0262117
0.0290405
0.039693
0.0298961
0.0288367
0.0274597
0.0255888
0.0201191
0.00901269
0.0131931
0.00475498
0.00171407
0.0142796
0.00201499
0.00740778
0.0216181
0.0126188
0.0154227
0.0239528
0.0168818
0.0175574
0.0244392
0.0177949
0.0178455
0.0238998
0.0177998
0.0175985
0.0216415
0.0171155
0.0164016
0.0201933
0.0158154
0.0154992
0.0186464
0.0148849
0.0127318
0.00741126
0.00759975
0.00206143
0.00177629
0.00577389
0.00417604
0.0132755
0.0132746
0.00577292
0.0048922
0.00475775
0.0131967
0.00957125
0.0201247
0.0256246
0.011543
0.0290389
0.0307987
0.0182272
0.0321868
0.0349335
0.0253408
0.0376733
0.0376539
0.0121088
0.0348103
0.031683
0.00964183
0.0292908
0.0257734
0.0052824
0.0206125
0.0147832
0.00803279
0.0020809
0.00185067
0.00447994
0.0187112
0.0134171
0.0214199
0.0351112
0.0301973
0.0391116
0.042146
0.0445825
0.0470195
0.0443955
0.0479237
0.0483818
0.045308
0.0486619
0.0486263
0.0425452
0.0481548
0.0469977
0.035113
0.0442598
0.0386258
0.0208551
0.0299656
0.0232911
0.00745907
0.018977
0.0124864
0.00447995
0.00430036
0.00571982
0.00675018
0.0224645
0.0178817
0.0236317
0.0405161
0.0314285
0.0415642
0.0485947
0.0469069
0.0490797
0.0496238
0.0497511
0.0499134
0.0496473
0.0499352
0.0498497
0.0481085
0.0494189
0.0478949
0.0386993
0.043766
0.0351545
0.0254068
0.0293313
0.0270395
0.0153411
0.0235124
0.017779
0.00675138
0.00672458
0.00818375
0.00972086
0.0289556
0.0260927
0.0362162
0.0438823
0.0424435
0.0467265
0.0494046
0.0488851
0.049707
0.0499716
0.0499412
0.0499885
0.0498649
0.0499771
0.0498606
0.047611
0.0493238
0.047492
0.0342113
0.0428366
0.0340746
0.0306939
0.031959
0.0359036
0.0214505
0.0342248
0.0256728
0.00977398
0.0096791
0.0106297
0.0106302
0.0397259
0.0285993
0.0397261
0.0482686
0.0454518
0.0482687
0.0498741
0.0494676
0.0498742
0.0499947
0.0499778
0.0499948
0.0498591
0.0499779
0.0498588
0.0474708
0.049314
0.0474678
0.0343632
0.0428464
0.0343667
0.0389831
0.0338109
0.040281
0.0285308
0.0396367
0.0298639
0.0113684
0.0112499
0.00972572
0.00821254
0.0362194
0.0217532
0.0289776
0.0467273
0.0359883
0.0438902
0.0497078
0.0478578
0.0494132
0.049989
0.0498765
0.049978
0.0498588
0.0499759
0.0498586
0.0474678
0.0493139
0.0474679
0.0343942
0.0428505
0.0343946
0.0406918
0.0340149
0.0407871
0.0303131
0.0403061
0.0304245
0.0115865
0.0114672
0.00688242
0.00620327
0.0237391
0.0165629
0.0228598
0.0416273
0.0309921
0.0408936
0.0491512
0.0466139
0.0490324
0.0499677
0.0497893
0.0499631
0.0498585
0.049974
0.0498585
0.0474679
0.0493139
0.0474679
0.0343952
0.0428505
0.0343952
0.0408035
0.0340215
0.0408056
0.0304449
0.0403323
0.0304477
0.0115958
0.0114764
0.00597472
0.00602257
0.0226203
0.0162921
0.0227697
0.0408434
0.0312652
0.0413429
0.0490267
0.0468594
0.0491204
0.049963
0.0498116
0.0499671
0.0498585
0.0499745
0.0498585
0.0474679
0.0493139
0.0474679
0.0343952
0.0428505
0.0343952
0.0408056
0.0340209
0.0408035
0.0304477
0.0403293
0.0304449
0.0115947
0.0114753
0.00633192
0.00672802
0.0252897
0.0187805
0.0285456
0.0427824
0.0373292
0.0443146
0.0493164
0.0480648
0.0495033
0.0499758
0.0499046
0.0499841
0.0498586
0.0499768
0.0498588
0.0474679
0.0493139
0.0474678
0.0343946
0.0428501
0.0343943
0.0407872
0.0339825
0.0406927
0.0304245
0.0401764
0.0303132
0.0115428
0.0114236
0.00696717
0.0068122
0.0290251
0.0184482
0.0260281
0.0444622
0.0342926
0.0430001
0.0495203
0.0475598
0.0493444
0.0499847
0.0498654
0.0499767
0.0498588
0.0499758
0.0498589
0.0474679
0.0493155
0.0474721
0.0343677
0.0428485
0.0343665
0.0402877
0.0333691
0.0390173
0.0298652
0.037993
0.0285388
0.0108608
0.0107472
0.00638335
0.00606479
0.0231522
0.0162792
0.0227145
0.0414272
0.0309415
0.040812
0.0491336
0.0465732
0.0490208
0.0499675
0.0497872
0.049963
0.049861
0.0499758
0.0498714
0.0475015
0.0493751
0.0476593
0.0341142
0.0431807
0.0343142
0.036038
0.0306359
0.0310814
0.0257148
0.0281507
0.0216405
0.00828842
0.0082426
0.00590641
0.00584921
0.0225349
0.0158255
0.0224764
0.0406212
0.0308038
0.0405755
0.0489832
0.0464371
0.0489747
0.0499622
0.0497771
0.0499628
0.049899
0.0499863
0.049934
0.0480857
0.0496598
0.0486714
0.0361244
0.046061
0.0411831
0.0282954
0.0358508
0.0292744
0.0185117
0.0234014
0.0175912
0.00669404
0.00668995
0.00583368
0.00583046
0.0224619
0.0157896
0.0224592