/*--------------------------------*- C++ -*----------------------------------*\
  =========                 |
  \\      /  F ield         | OpenFOAM: The Open Source CFD Toolbox
   \\    /   O peration     | Website:  https://openfoam.org
    \\  /    A nd           | Version:  6
     \\/     M anipulation  |
\*---------------------------------------------------------------------------*/
FoamFile
{
    version     2.0;
    format      ascii;
    class       surfaceScalarField;
    location    "0.7";
    object      phi;
}
// * * * * * * * * * * * * * * * * * * * * * * * * * * * * * * * * * * * * * //

dimensions      [0 3 -1 0 0 0 0];

internalField   nonuniform List<scalar> 
8239
(
0.0745366
0.0650594
0.0745365
0.0630961
0.0504034
0.0687494
0.0526004
0.0398187
0.0598205
0.0214665
0.0263334
0.0155117
-0.0214667
0.0228341
0.0109069
-0.0526006
0.0263334
0.0155116
-0.0630963
0.0398187
0.0598205
-0.0745366
0.0504034
0.0687494
0.0650593
0.0745365
0.0663007
0.109431
0.0663007
0.0524743
0.0852915
0.061617
0.0439258
0.0686454
0.0543762
0.0180048
0.0463968
0.0129109
-0.0180051
0.0408553
0.0091534
-0.043926
0.0463968
0.0129109
-0.0524745
0.0686454
0.0543762
-0.0663008
0.0852914
0.061617
0.109431
0.0663007
0.0178756
0.102083
0.0178755
0.0244071
0.0851215
0.0156337
0.0202205
0.0716302
0.0122324
0.00794364
0.0556519
0.0075752
-0.00794386
0.0512289
0.00604486
-0.0202207
0.0556519
0.0075752
-0.0244072
0.0716302
0.0122324
-0.0178756
0.0851215
0.0156337
0.102083
0.0178755
0.00803607
0.0786565
0.00803605
0.0114828
0.072081
0.00709546
0.0096209
0.0648168
0.00567921
0.00373759
0.0581527
0.00416234
-0.00373784
0.055833
0.00359419
-0.00962112
0.0581527
0.00416235
-0.011483
0.0648168
0.00567921
-0.00803618
0.0720809
0.00709547
0.0786565
0.00803605
0.00372647
0.0683814
0.00372643
0.00547636
0.0656063
0.00334989
0.00465435
0.0620194
0.00278326
0.00180955
0.0589468
0.00224248
-0.00180981
0.0577989
0.00203143
-0.00465457
0.0589468
0.00224248
-0.00547651
0.0620194
0.00278327
-0.00372654
0.0656063
0.0033499
0.0683814
0.00372643
0.00176993
0.0636562
0.00176989
0.00264561
0.0624143
0.00162178
0.00227493
0.060676
0.00139835
0.000887848
0.0592004
0.00119581
-0.000888107
0.058635
0.00111599
-0.00227515
0.0592004
0.00119582
-0.00264576
0.060676
0.00139836
-0.00177
0.0624143
0.00162179
0.0636562
0.00176988
0.000855704
0.0614149
0.000855664
0.00129207
0.0608361
0.000797852
0.00112021
0.0599917
0.000710371
0.000438793
0.0592697
0.000632764
-0.000439052
0.0589899
0.000602149
-0.00112045
0.0592698
0.000632768
-0.00129223
0.0599917
0.000710376
-0.000855772
0.0608361
0.000797861
0.0614149
0.000855663
0.000418571
0.0603312
0.000418535
0.000635742
0.0600528
0.000396317
0.000554103
0.0596372
0.000362603
0.000217604
0.0592784
0.000332952
-0.000217862
0.0591383
0.000321264
-0.00055433
0.0592785
0.000332956
-0.000635899
0.0596372
0.00036261
-0.000418641
0.0600528
0.000396323
0.0603312
0.000418532
0.000205006
0.0598043
0.000204973
0.000312259
0.0596648
0.000197259
0.000272867
0.0594529
0.000185548
0.00010727
0.0592676
0.000175297
-0.000107526
0.0591945
0.000171266
-0.000273091
0.0592676
0.000175301
-0.000312415
0.0594529
0.000185556
-0.000205077
0.0596648
0.000197267
0.0598043
0.000204973
9.68631e-05
0.0595565
9.68353e-05
0.000147195
0.0594785
9.62892e-05
0.000128196
0.0593563
9.55195e-05
5.02304e-05
0.0592449
9.49384e-05
-5.04811e-05
0.0591992
9.47573e-05
-0.000128415
0.059245
9.49426e-05
-0.000147348
0.0593563
9.55269e-05
-9.69327e-05
0.0594786
9.62968e-05
0.0595565
9.68335e-05
3.57561e-05
0.0594648
3.57318e-05
5.22262e-05
0.0594055
4.17401e-05
4.31117e-05
0.0593038
5.10818e-05
1.61668e-05
0.0591984
5.9675e-05
-1.64114e-05
0.0591486
6.33013e-05
-4.33259e-05
0.0591985
5.9679e-05
-5.23768e-05
0.0593038
5.10893e-05
-3.58253e-05
0.0594056
4.17488e-05
0.0594648
3.57326e-05
-1.2113e-05
0.0594914
-1.2133e-05
-2.65964e-05
0.0594185
5.71287e-06
-3.27488e-05
0.0592725
3.35123e-05
-1.57651e-05
0.0590883
5.96818e-05
1.55286e-05
0.0589767
7.12652e-05
3.25422e-05
0.0590883
5.96856e-05
2.64516e-05
0.0592725
3.35191e-05
1.20464e-05
0.0594186
5.72031e-06
0.0594914
-1.21329e-05
-7.54927e-05
0.0596639
-7.55084e-05
-0.000142097
0.0595425
-3.05604e-05
-0.000158231
0.0592581
3.99491e-05
-7.30192e-05
0.0588166
0.000109864
7.27918e-05
0.0584479
0.000144422
0.000158032
0.0588166
0.000109868
0.000141956
0.0592581
3.99563e-05
7.54266e-05
0.0595425
-3.05518e-05
0.0596639
-7.55055e-05
-0.000192739
0.0600792
-0.00019275
-0.000381419
0.0598735
-8.47489e-05
-0.000457346
0.0593078
8.64639e-05
-0.000222336
0.0581848
0.000272762
0.00022212
0.0567097
0.000386186
0.000457157
0.0581848
0.000272766
0.000381287
0.0593079
8.64702e-05
0.000192677
0.0598736
-8.47419e-05
0.0600792
-0.000192749
-0.000422072
0.060906
-0.000422079
-0.000918844
0.0606171
-0.000175558
-0.00126959
0.059668
0.000220873
-0.000676588
0.0570891
0.000724767
0.000676382
0.0502817
0.00115953
0.00126941
0.0570891
0.000724771
0.000918717
0.059668
0.000220879
0.000422012
0.0606172
-0.00017555
0.060906
-0.000422075
-0.000823251
0.0623105
-0.000823251
-0.00206477
0.0620668
-0.000311019
-0.00363283
0.0611614
0.000527609
-0.00221689
0.0581943
0.00188526
0.0022167
0.0479176
0.00386121
0.00363266
0.0581943
0.00188527
0.00206465
0.0611614
0.000527615
0.000823193
0.0620668
-0.000311012
0.0623105
-0.000823248
-0.00131842
0.0642025
-0.00131841
-0.00400155
0.0642008
-0.000447552
-0.0110084
0.0641983
0.00100556
-0.0080683
0.064196
0.00428405
0.0080681
0.0641951
0.0396574
0.0110083
0.064196
0.00428406
0.00400144
0.0641983
0.00100556
0.00131837
0.0642009
-0.000447545
0.0642025
-0.00131841
-0.00131974
0.0660978
-0.00131973
-0.00400357
0.0663375
-0.000448885
-0.0110102
0.0672365
0.0010042
-0.00806899
0.0701981
0.00428267
0.00806881
0.0804727
0.0396561
0.0110101
0.0701982
0.00428268
0.00400348
0.0672366
0.0010042
0.00131969
0.0663375
-0.000448879
0.0660979
-0.00131973
-0.000827821
0.0675139
-0.000827808
-0.00207176
0.0677961
-0.000315637
-0.00363896
0.0687349
0.000522893
-0.0022193
0.0713048
0.00188046
0.00221915
0.0781087
0.00385638
0.00363884
0.0713049
0.00188046
0.00207167
0.068735
0.000522898
0.000827775
0.0677961
-0.00031563
0.0675139
-0.000827802
-0.000431962
0.0683656
-0.000431945
-0.000933976
0.0685591
-0.000185593
-0.00128288
0.0691059
0.000210572
-0.000681806
0.0702124
0.000714232
0.000681684
0.071681
0.0011489
0.00128277
0.0702124
0.000714234
0.000933898
0.069106
0.000210575
0.000431924
0.0685591
-0.000185588
0.0683657
-0.000431939
-0.000212404
0.0688306
-0.000212382
-0.000411516
0.0689288
-0.00010482
-0.000483776
0.0691775
6.57108e-05
-0.000232734
0.0695877
0.00025141
0.000232632
0.069944
0.000364596
0.000483688
0.0695877
0.000251412
0.000411451
0.0691775
6.57149e-05
0.00021237
0.0689288
-0.000104814
0.0688306
-0.000212373
-0.000113693
0.0690992
-0.000113665
-0.000200564
0.0691279
-6.98469e-05
-0.000209583
0.0692064
-1.0786e-06
-9.32425e-05
0.0693312
6.73096e-05
9.31635e-05
0.0694195
0.000101265
0.000209515
0.0693312
6.73112e-05
0.000200514
0.0692064
-1.07562e-06
0.000113666
0.0691279
-6.98426e-05
0.0690993
-0.000113657
-8.5609e-05
0.0693104
-8.5575e-05
-0.000139074
0.0692861
-7.06199e-05
-0.000131522
0.0692604
-4.72579e-05
-5.46868e-05
0.0692541
-2.49697e-05
5.46297e-05
0.0692602
-1.4912e-05
0.000131473
0.0692542
-2.49681e-05
0.000139037
0.0692605
-4.72547e-05
8.55864e-05
0.0692862
-7.06143e-05
0.0693105
-8.55657e-05
-0.000104607
0.0695702
-0.000104568
-0.000162504
0.0694923
-0.000105937
-0.000145354
0.0693767
-0.000107918
-5.81037e-05
0.0692807
-0.000109185
5.80703e-05
0.0692452
-0.000109417
0.000145327
0.0692807
-0.000109183
0.000162483
0.0693767
-0.000107916
0.000104593
0.0694924
-0.000105934
0.0695702
-0.00010456
-0.000168925
0.0699856
-0.00016888
-0.000259123
0.069839
-0.000188232
-0.000228036
0.0696147
-0.000217944
-9.00757e-05
0.0694225
-0.000243543
9.00658e-05
0.0693484
-0.000253447
0.000228029
0.0694225
-0.000243542
0.000259114
0.0696147
-0.000217942
0.000168916
0.069839
-0.000188227
0.0699856
-0.000168869
-0.000292592
0.0706941
-0.000292542
-0.000447504
0.0704598
-0.000348073
-0.00039193
0.0700952
-0.000434059
-0.000154198
0.0697868
-0.00050763
0.000154213
0.0696692
-0.000535964
0.000391945
0.0697868
-0.000507628
0.000447512
0.0700952
-0.000434058
0.000292591
0.0704599
-0.000348071
0.0706942
-0.000292533
-0.000498378
0.0718712
-0.000498323
-0.000761531
0.0715629
-0.000641365
-0.000664307
0.0710626
-0.00086704
-0.000260272
0.0706584
-0.00105607
0.000260311
0.0705103
-0.00112761
0.000664341
0.0706584
-0.00105607
0.000761551
0.0710627
-0.000867039
0.00049838
0.071563
-0.000641362
0.0718712
-0.000498312
-0.000796308
0.0736648
-0.000796248
-0.00121709
0.0734396
-0.00115448
-0.00105475
0.0729942
-0.00174472
-0.000409981
0.0726967
-0.00221852
0.000410046
0.0726058
-0.00239234
0.00105481
0.0726967
-0.00221852
0.00121713
0.0729942
-0.00174472
0.000796317
0.0734396
-0.00115448
0.0736648
-0.000796237
-0.00111148
0.0759087
-0.00111142
-0.00170509
0.0763259
-0.00197693
-0.00145837
0.0767191
-0.00354942
-0.000556777
0.0772388
-0.00470867
0.000556868
0.0774814
-0.00511222
0.00145845
0.0772388
-0.00470866
0.00170513
0.0767191
-0.00354941
0.00111149
0.0763259
-0.00197693
0.0759088
-0.0011114
-0.00107897
0.0773183
-0.0010789
-0.00168703
0.079627
-0.00299493
-0.00139202
0.0830122
-0.00733786
-0.000501871
0.0859536
-0.0100275
0.000501979
0.0870858
-0.0108884
0.00139211
0.0859536
-0.0100275
0.00168709
0.0830122
-0.00733786
0.00107898
0.079627
-0.00299492
0.0773184
-0.00107888
0.000398738
0.0741108
0.000398802
0.000488212
0.0792196
-0.00282872
0.000554086
0.0874977
-0.015537
0.000297368
0.0939534
-0.0209387
-0.00029724
0.0962892
-0.0224784
-0.000553976
0.0939534
-0.0209387
-0.000488149
0.0874977
-0.015537
-0.000398727
0.0792196
-0.0028287
0.0741108
0.000398829
0.00541331
0.0606856
0.00541338
0.00814017
0.0670256
0.00612561
0.00699567
0.0775626
0.00395773
0.00271752
0.0852789
0.00458052
-0.00271738
0.0879762
0.0048077
-0.00699555
0.0852789
0.00458052
-0.0081401
0.0775626
0.00395774
-0.0054133
0.0670256
0.00612563
0.0606857
0.0054134
0.0124022
0.0345805
0.0124023
0.0187818
0.0388183
0.0211893
0.0156917
0.0457809
0.0467812
0.00586944
0.0506496
0.0588797
-0.00586926
0.052312
0.0623283
-0.0156915
0.0506496
0.0588797
-0.0187817
0.0457809
0.0467812
-0.0124022
0.0388183
0.0211893
0.0345806
0.0124023
0.0166268
0.0166268
0.0249768
0.0291282
0.0205249
0.0638514
0.00755903
0.0751168
-0.00755892
0.077859
-0.0205248
0.0751168
-0.0249767
0.0638513
-0.0166267
0.0291282
0.0166269
0.0687495
0.0504034
0.063096
0.0477732
0.0368475
0.0477731
0.0319132
0.0287112
0.0354652
0.0117275
0.0226172
0.0189201
-0.0117277
0.0206487
0.0143579
-0.0319134
0.0226172
0.0189201
-0.0477733
0.0287112
0.0354652
-0.0687495
0.0368474
0.0477731
0.0504034
0.063096
0.061617
0.0852914
0.0524742
0.0396419
0.0628555
0.0396418
0.0263289
0.0500901
0.0296761
0.00969339
0.0404976
0.0158489
-0.00969361
0.0374201
0.0121469
-0.0263291
0.0404976
0.0158489
-0.0396421
0.0500902
0.0296761
-0.0616171
0.0628554
0.0396419
0.0852914
0.0524743
0.0156338
0.0851215
0.024407
0.0199821
0.0695221
0.019982
0.015205
0.0589155
0.0151304
0.00569914
0.0508506
0.0101006
-0.00569936
0.0481525
0.00837114
-0.0152052
0.0508507
0.0101006
-0.0199822
0.0589155
0.0151304
-0.0156339
0.0695221
0.019982
0.0851214
0.024407
0.00709551
0.072081
0.0114828
0.00987399
0.0662035
0.00987391
0.00800931
0.0602007
0.00780172
0.00305172
0.0555149
0.005883
-0.00305196
0.0538318
0.00516415
-0.00800953
0.0555149
0.00588302
-0.00987415
0.0602007
0.00780174
-0.00709559
0.0662035
0.00987394
0.0720809
0.0114828
0.00334993
0.0656063
0.00547628
0.00487245
0.0631358
0.00487237
0.00409
0.0600511
0.00402959
0.00157779
0.0575624
0.00328199
-0.00157805
0.0566331
0.0029934
-0.00409023
0.0575624
0.00328201
-0.00487262
0.0600511
0.00402962
-0.00335001
0.0631358
0.0048724
0.0656063
0.0054763
0.00162182
0.0624143
0.00264553
0.00241475
0.0612966
0.00241467
0.00206664
0.0597543
0.00207888
0.000804088
0.0584741
0.00178529
-0.000804347
0.0579856
0.00167073
-0.00206687
0.0584741
0.0017853
-0.00241492
0.0597543
0.0020789
-0.0016219
0.0612966
0.0024147
0.0624143
0.00264555
0.000797892
0.0608361
0.001292
0.00120305
0.0603069
0.00120298
0.00104121
0.0595392
0.00107063
0.000407364
0.0588883
0.000955289
-0.000407623
0.0586366
0.000910091
-0.00104144
0.0588883
0.000955298
-0.00120322
0.0595392
0.00107065
-0.000797976
0.0603069
0.00120301
0.0608361
0.00129203
0.000396353
0.0600528
0.000635678
0.000601701
0.0597947
0.000601636
0.000524108
0.0594102
0.00055042
0.000205733
0.0590794
0.000505774
-0.00020599
0.0589503
0.000488246
-0.000524334
0.0590794
0.000505787
-0.000601865
0.0594102
0.000550444
-0.000396434
0.0597947
0.000601665
0.0600528
0.000635703
0.000197291
0.0596648
0.0003122
0.000300474
0.0595352
0.000300416
0.000262529
0.0593387
0.000282594
0.000103192
0.0591671
0.000267062
-0.000103447
0.0590995
0.00026097
-0.000262753
0.0591671
0.000267075
-0.000300637
0.0593387
0.000282618
-0.000197372
0.0595352
0.000300446
0.0596648
0.000312227
9.6318e-05
0.0594785
0.000147145
0.000146423
0.0594095
0.000146371
0.000127594
0.0593014
0.000145249
5.00166e-05
0.0592032
0.000144373
-5.02664e-05
0.0591631
0.000144088
-0.000127814
0.0592032
0.000144386
-0.000146582
0.0593014
0.000145272
-9.6397e-05
0.0594095
0.0001464
0.0594786
0.00014717
4.17647e-05
0.0594055
5.21833e-05
6.16608e-05
0.0593622
6.16167e-05
5.17371e-05
0.059286
7.60325e-05
1.96845e-05
0.0592067
8.90373e-05
-1.99279e-05
0.0591699
9.44244e-05
-5.19509e-05
0.0592067
8.90495e-05
-6.18159e-05
0.059286
7.60553e-05
-4.18422e-05
0.0593622
6.16462e-05
0.0594056
5.22101e-05
5.73326e-06
0.0594185
-2.66315e-05
1.74561e-06
0.0593807
1.70951e-06
-6.2468e-06
0.0592935
4.46399e-05
-4.73729e-06
0.0591775
8.37677e-05
4.50161e-06
0.0591101
0.000100496
6.04009e-06
0.0591775
8.37794e-05
-1.89496e-06
0.0592935
4.46617e-05
-5.80752e-06
0.0593807
1.73721e-06
0.0594186
-2.66067e-05
-3.05443e-05
0.0595425
-0.000142124
-6.87452e-05
0.0594981
-6.87731e-05
-8.59267e-05
0.0593512
4.04065e-05
-4.15409e-05
0.0591039
0.000142363
4.13146e-05
0.0589201
0.000189343
8.57282e-05
0.0591039
0.000142374
6.86013e-05
0.0593512
4.04274e-05
3.04722e-05
0.0594982
-6.87456e-05
0.0595425
-0.000142097
-8.47374e-05
0.0598735
-0.000381438
-0.000196076
0.059821
-0.000196095
-0.00025514
0.0595547
6.99433e-05
-0.000126836
0.0590009
0.000329291
0.00012662
0.0584492
0.000467633
0.000254951
0.0590009
0.000329301
0.000195939
0.0595547
6.99631e-05
8.46693e-05
0.059821
-0.00019607
0.0598736
-0.000381415
-0.000175551
0.0606171
-0.000918854
-0.000456366
0.0605714
-0.000456377
-0.000662316
0.0601645
0.000161948
-0.000350487
0.0591164
0.000810166
0.000350284
0.0576032
0.00126025
0.000662138
0.0591164
0.000810176
0.000456237
0.0601646
0.000161966
0.000175486
0.0605714
-0.000456352
0.0606172
-0.000918828
-0.000311017
0.0620668
-0.00206477
-0.000947363
0.0620439
-0.000947365
-0.00160443
0.0616797
0.000364973
-0.000923424
0.0606075
0.00191395
0.000923236
0.0587224
0.00357976
0.00160426
0.0606075
0.00191396
0.000947243
0.0616797
0.000364991
0.000310957
0.0620439
-0.000947343
0.0620668
-0.00206475
-0.000447554
0.0642008
-0.00400155
-0.00161256
0.0641991
-0.00161255
-0.0033293
0.0641965
0.00066504
-0.00211523
0.0641942
0.00387336
0.00211505
0.0641933
0.0108594
0.00332916
0.0641942
0.00387338
0.00161245
0.0641965
0.000665055
0.000447498
0.0641991
-0.00161253
0.0642009
-0.00400152
-0.000448892
0.0663375
-0.00400356
-0.00161461
0.0663561
-0.00161459
-0.00333111
0.0667139
0.000662961
-0.00211593
0.0677805
0.00387125
0.00211577
0.0696634
0.0108572
0.00333097
0.0677806
0.00387126
0.00161451
0.066714
0.000662976
0.000448843
0.0663562
-0.00161457
0.0663375
-0.00400354
-0.000315649
0.0677961
-0.00207173
-0.000954448
0.0678349
-0.000954423
-0.00161065
0.0682312
0.000357761
-0.000925866
0.0692701
0.0019066
0.000925729
0.0707797
0.00357236
0.00161053
0.0692702
0.00190661
0.000954364
0.0682312
0.000357774
0.000315604
0.0678349
-0.000954407
0.0677961
-0.00207172
-0.000185611
0.0685591
-0.000933943
-0.000471762
0.0685988
-0.000471728
-0.000675836
0.0688457
0.000146189
-0.000355798
0.0693826
0.000794049
0.000355677
0.0699275
0.00124399
0.000675731
0.0693826
0.000794055
0.000471687
0.0688457
0.0001462
0.000185573
0.0685989
-0.000471713
0.0685591
-0.000933923
-0.000104843
0.0689288
-0.000411473
-0.000226851
0.0689487
-0.000226807
-0.00028217
0.0690586
3.81863e-05
-0.00013747
0.0692734
0.000296614
0.00013737
0.0694443
0.000434592
0.000282083
0.0692734
0.000296619
0.000226788
0.0690586
3.81957e-05
0.000104811
0.0689488
-0.000226794
0.0689288
-0.000411456
-6.98754e-05
0.0691279
-0.000200511
-0.00012895
0.069119
-0.000128895
-0.000138807
0.0691348
-2.23815e-05
-6.23667e-05
0.0691883
7.7237e-05
6.22888e-05
0.069231
0.000123294
0.00013874
0.0691883
7.7241e-05
0.000128902
0.0691349
-2.23743e-05
6.98508e-05
0.069119
-0.000128886
0.0691279
-0.000200499
-7.06539e-05
0.0692862
-0.00013901
-0.000115161
0.0692397
-0.000115095
-0.000108905
0.0691788
-7.89543e-05
-4.51893e-05
0.0691381
-4.57658e-05
4.51339e-05
0.0691277
-3.13743e-05
0.000108858
0.0691382
-4.57629e-05
0.000115126
0.0691788
-7.89487e-05
7.06354e-05
0.0692397
-0.000115087
0.0692862
-0.000138998
-0.000105977
0.0694923
-0.00016243
-0.000164356
0.0693895
-0.00016428
-0.000146606
0.0692352
-0.000167175
-5.84684e-05
0.0691051
-0.00016925
5.84361e-05
0.0690558
-0.000169769
0.000146579
0.0691052
-0.000169248
0.000164338
0.0692352
-0.000167171
0.000105967
0.0693896
-0.000164275
0.0694924
-0.000162422
-0.000188277
0.069839
-0.000259038
-0.00028863
0.0696425
-0.000288544
-0.000253696
0.06934
-0.000333904
-0.000100103
0.0690818
-0.000373041
0.000100095
0.0689825
-0.000388204
0.000253691
0.0690818
-0.00037304
0.000288626
0.0693401
-0.000333902
0.000188273
0.0696426
-0.000288541
0.0698391
-0.00025903
-0.000348124
0.0704598
-0.000447409
-0.000532331
0.0701079
-0.000532234
-0.000465608
0.0695521
-0.000663652
-0.000182922
0.0690885
-0.000776128
0.000182939
0.0689138
-0.000819455
0.000465624
0.0690885
-0.000776128
0.000532344
0.0695521
-0.000663653
0.000348129
0.070108
-0.000532235
0.0704599
-0.000447406
-0.00064142
0.0715629
-0.000761429
-0.000980363
0.0709814
-0.000980262
-0.000853049
0.0700024
-0.00132601
-0.000333184
0.0692355
-0.0016156
0.000333225
0.0689598
-0.0017252
0.000853089
0.0692355
-0.00161561
0.000980393
0.0700024
-0.00132601
0.000641432
0.0709815
-0.000980266
0.071563
-0.000761425
-0.00115454
0.0734396
-0.00121698
-0.00176774
0.0726502
-0.00176762
-0.00152401
0.0710529
-0.00267883
-0.000588153
0.0699862
-0.00340931
0.000588222
0.0696438
-0.00367713
0.00152407
0.0699863
-0.00340931
0.00176778
0.0710529
-0.00267883
0.00115456
0.0726503
-0.00176763
0.0734396
-0.00121698
-0.00197699
0.0763259
-0.00170498
-0.00305146
0.0759349
-0.00305134
-0.00258322
0.0740245
-0.00552833
-0.000970541
0.0733433
-0.00734432
0.000970634
0.0732376
-0.00797518
0.0025833
0.0733434
-0.00734431
0.00305151
0.0740245
-0.00552833
0.00197702
0.075935
-0.00305134
0.0763259
-0.00170497
-0.002995
0.079627
-0.00168691
-0.00474727
0.0822589
-0.00474715
-0.00386692
0.0852638
-0.0119182
-0.00135991
0.0884779
-0.0162912
0.00136002
0.089751
-0.0176852
0.00386702
0.0884779
-0.0162912
0.00474733
0.0852638
-0.0119182
0.00299502
0.0822589
-0.00474714
0.079627
-0.00168691
-0.00282879
0.0792196
0.000488328
-0.00496487
0.0878369
-0.00496475
-0.00361881
0.103741
-0.0281044
-0.000985665
0.114748
-0.0377025
0.0009858
0.118477
-0.0404386
0.00361893
0.114748
-0.0377025
0.00496495
0.103741
-0.0281044
0.00282881
0.0878369
-0.00496474
0.0792196
0.000488341
0.00612554
0.0670257
0.00814029
0.0090219
0.078842
0.00902204
0.00787487
0.10223
0.00314251
0.116252
-0.00314236
0.120722
-0.00787474
0.116252
-0.00902182
0.10223
-0.00612552
0.078842
0.00902204
0.0670257
0.00814029
0.0211892
0.0388183
0.0187819
0.032698
0.0467044
0.0326981
0.0262866
0.0618738
0.076935
0.00924818
0.0698761
0.0970745
-0.00924802
0.0722847
0.102774
-0.0262864
0.0698761
0.0970745
-0.0326979
0.0618738
0.076935
-0.0211891
0.0467044
0.0326981
0.0388183
0.0187819
0.0291282
0.0249769
0.0439737
0.0439738
0.0338721
0.0991933
0.0114008
0.115364
-0.0114006
0.119167
-0.0338719
0.115364
-0.0439735
0.0991932
-0.0291281
0.0439737
0.0249768
0.0598205
0.0398187
0.0526003
0.0354652
0.0287112
0.0319131
0.0211362
0.0228938
0.0211361
0.00729194
0.0195122
0.013417
-0.00729221
0.0184039
0.0108954
-0.0211365
0.0195122
0.013417
-0.0354654
0.0228938
0.0211362
-0.0598206
0.0287112
0.0319131
0.0398186
0.0526003
0.0543762
0.0686455
0.0439257
0.0296761
0.0500902
0.0263288
0.0175939
0.0409158
0.0175938
0.00609359
0.0356108
0.0113385
-0.00609381
0.0338692
0.00930135
-0.0175941
0.0356108
0.0113385
-0.0296763
0.0409158
0.0175938
-0.0543763
0.0500901
0.0263288
0.0686454
0.0439257
0.0122325
0.0716302
0.0202204
0.0151305
0.0589155
0.0152049
0.0109898
0.0511988
0.0109897
0.00400053
0.0463718
0.00779479
-0.00400077
0.0447327
0.00666982
-0.0109901
0.0463717
0.0077948
-0.0151307
0.0511988
0.0109898
-0.0122326
0.0589155
0.0152049
0.0716302
0.0202204
0.00567925
0.0648168
0.0096208
0.00780181
0.0602007
0.00800921
0.00621437
0.0557028
0.00621426
0.00233845
0.0524912
0.00478727
-0.00233869
0.0513425
0.00426022
-0.00621458
0.0524912
0.00478729
-0.00780196
0.0557028
0.0062143
-0.00567933
0.0602007
0.00800926
0.0648168
0.00962088
0.0027833
0.0620194
0.00465425
0.00402968
0.0600511
0.0040899
0.00335946
0.057634
0.00335935
0.00128948
0.0557548
0.00275822
-0.00128972
0.0550573
0.00253011
-0.00335967
0.0557548
0.00275824
-0.00402983
0.057634
0.00335939
-0.00278338
0.0600511
0.00408995
0.0620194
0.00465431
0.00139839
0.060676
0.00227483
0.00207896
0.0597543
0.00206654
0.00177488
0.058489
0.00177479
0.000689247
0.0574539
0.00152904
-0.000689493
0.0570604
0.00143434
-0.0017751
0.0574539
0.00152906
-0.00207912
0.058489
0.00177483
-0.00139847
0.0597543
0.00206659
0.060676
0.00227489
0.000710405
0.0599917
0.00112013
0.0010707
0.0595392
0.00104113
0.000925913
0.0588835
0.000925823
0.000362004
0.0583308
0.000827205
-0.00036225
0.0581175
0.000788856
-0.000926127
0.0583308
0.000827222
-0.00107086
0.0588835
0.00092586
-0.00071049
0.0595392
0.00104118
0.0599917
0.00112019
0.000362638
0.0596372
0.000554027
0.000550486
0.0594102
0.000524029
0.000479394
0.0590723
0.000479316
0.000188139
0.0587819
0.000440702
-0.000188383
0.0586689
0.000425613
-0.000479609
0.0587819
0.000440723
-0.000550643
0.0590723
0.000479353
-0.000362719
0.0594102
0.000524081
0.0596372
0.000554081
0.000185579
0.0594529
0.0002728
0.000282653
0.0593387
0.000262459
0.000246962
0.0591656
0.000246892
9.70715e-05
0.0590143
0.000233387
-9.7312e-05
0.0589549
0.000228105
-0.000247174
0.0590144
0.000233407
-0.000282808
0.0591656
0.000246929
-0.000185659
0.0593387
0.00026251
0.0594529
0.000272854
9.55474e-05
0.0593563
0.000128137
0.000145301
0.0593014
0.000127533
0.000126685
0.0592147
0.000126624
4.96862e-05
0.0591358
0.000125885
-4.99225e-05
0.0591038
0.000125635
-0.000126893
0.0591358
0.000125905
-0.000145453
0.0592148
0.000126661
-9.56246e-05
0.0593014
0.000127583
0.0593563
0.00012819
5.11055e-05
0.0593038
4.30622e-05
7.60763e-05
0.059286
5.16863e-05
6.46406e-05
0.0592483
6.45892e-05
2.48728e-05
0.0592051
7.5969e-05
-2.51031e-05
0.0591847
8.05916e-05
-6.48432e-05
0.0592051
7.59883e-05
-7.62244e-05
0.0592484
6.46254e-05
-5.1181e-05
0.059286
5.17345e-05
0.0593038
4.31143e-05
3.35319e-05
0.0592725
-3.27886e-05
4.46758e-05
0.0592935
-6.28756e-06
3.24708e-05
0.0592932
3.24296e-05
1.09638e-05
0.0592624
6.6406e-05
-1.11867e-05
0.0592392
8.04111e-05
-3.26669e-05
0.0592625
6.64246e-05
-4.4819e-05
0.0592932
3.24644e-05
-3.36048e-05
0.0592935
-6.24132e-06
0.0592725
-3.27392e-05
3.99645e-05
0.0592581
-0.00015826
4.04342e-05
0.0593512
-8.59572e-05
1.43626e-05
0.0593989
1.43317e-05
-2.10763e-08
0.0593573
0.000101522
-1.93074e-07
0.0593058
0.000138784
-1.45506e-05
0.0593573
0.000101539
-4.05714e-05
0.0593989
1.43648e-05
-4.00345e-05
0.0593512
-8.59129e-05
0.0592581
-0.000158212
8.64751e-05
0.0593079
-0.000457365
6.99629e-05
0.0595547
-0.00025516
-2.31745e-06
0.059683
-2.33775e-06
-1.8111e-05
0.0595962
0.000212888
1.7907e-05
0.0594604
0.00031144
2.13845e-06
0.0595962
0.000212905
-7.00932e-05
0.059683
-2.30635e-06
-8.65412e-05
0.0595548
-0.000255118
0.0593079
-0.00045732
0.000220879
0.059668
-0.0012696
0.000161959
0.0601646
-0.000662325
-3.7871e-05
0.0603972
-3.78804e-05
-6.40222e-05
0.0602335
0.000470807
6.38298e-05
0.0599332
0.000734255
3.77024e-05
0.0602335
0.000470822
-0.000162082
0.0603973
-3.78511e-05
-0.000220942
0.0601646
-0.000662286
0.0596681
-0.00126955
0.000527611
0.0611614
-0.00363282
0.000364976
0.0616797
-0.00160443
-0.00013133
0.0619044
-0.000131329
-0.000176742
0.0617378
0.000970172
0.000176563
0.0614055
0.00166985
0.000131173
0.0617378
0.00097019
-0.00036509
0.0619044
-0.000131302
-0.000527669
0.0616797
-0.00160439
0.0611615
-0.00363279
0.00100556
0.0641983
-0.0110084
0.000665035
0.0641965
-0.00332929
-0.00030407
0.0641939
-0.000304058
-0.000369448
0.0641915
0.00164656
0.000369283
0.0641907
0.0033149
0.000303926
0.0641915
0.00164657
-0.00066514
0.0641939
-0.000304033
-0.00100561
0.0641965
-0.00332926
0.0641983
-0.0110084
0.00100419
0.0672365
-0.0110102
0.000662947
0.0667139
-0.00333108
-0.000305901
0.0664828
-0.000305878
-0.000370166
0.0666436
0.00164471
0.000370017
0.0669737
0.00331304
0.000305771
0.0666436
0.00164472
-0.000663044
0.0664829
-0.000305855
-0.00100424
0.066714
-0.00333105
0.0672366
-0.0110102
0.000522881
0.0687349
-0.00363893
0.000357737
0.0682312
-0.00161061
-0.000137686
0.0679878
-0.000137651
-0.000179237
0.068142
0.000963731
0.000179105
0.0684386
0.00166336
0.000137571
0.0681421
0.000963742
-0.00035782
0.0679878
-0.000137631
-0.000522924
0.0682312
-0.00161059
0.068735
-0.0036389
0.000210555
0.0691059
-0.00128283
0.000146155
0.0688457
-0.000675788
-5.17501e-05
0.0686973
-5.17025e-05
-6.9477e-05
0.0687663
0.000456668
6.93625e-05
0.068895
0.000719989
5.16506e-05
0.0687663
0.000456677
-0.000146226
0.0686973
-5.16861e-05
-0.00021059
0.0688457
-0.000675766
0.069106
-0.0012828
6.56886e-05
0.0691775
-0.000483718
3.81422e-05
0.0690586
-0.00028211
-3.02675e-05
0.0689717
-3.02075e-05
-2.91103e-05
0.0689787
0.000184209
2.90158e-05
0.0690166
0.000282439
3.01858e-05
0.0689787
0.000184215
-3.8201e-05
0.0689717
-3.01941e-05
-6.57187e-05
0.0690586
-0.000282092
0.0691775
-0.000483697
-1.10614e-06
0.0692064
-0.000209512
-2.24359e-05
0.0691348
-0.000138734
-4.0859e-05
0.069058
-4.07858e-05
-2.17729e-05
0.0690212
4.43502e-05
2.16991e-05
0.0690179
8.08002e-05
4.07955e-05
0.0690212
4.43558e-05
2.23909e-05
0.0690581
-4.07755e-05
1.08347e-06
0.0691349
-0.00013872
0.0692064
-0.000209497
-4.72909e-05
0.0692604
-0.000131438
-7.90194e-05
0.0691788
-0.000108819
-7.61419e-05
0.0690645
-7.60549e-05
-3.18366e-05
0.068975
-4.72884e-05
3.17843e-05
0.0689433
-3.53356e-05
7.60974e-05
0.068975
-4.72846e-05
7.89882e-05
0.0690646
-7.6048e-05
4.7275e-05
0.0691789
-0.00010881
0.0692605
-0.000131426
-0.000107956
0.0693767
-0.000145258
-0.000167251
0.0692352
-0.000146506
-0.000148851
0.0690212
-0.00014875
-5.92379e-05
0.0688393
-0.000150574
5.92076e-05
0.0687694
-0.000151126
0.000148826
0.0688393
-0.000150572
0.000167234
0.0690213
-0.000148746
0.000107948
0.0692353
-0.000146501
0.0693768
-0.000145252
-0.000217988
0.0696147
-0.000227926
-0.000333991
0.0693401
-0.000253583
-0.000293191
0.068914
-0.000293077
-0.00011555
0.0685521
-0.000327226
0.000115542
0.0684135
-0.00034048
0.000293186
0.0685522
-0.000327225
0.000333988
0.0689141
-0.000293076
0.000217987
0.0693401
-0.000253583
0.0696148
-0.000227925
-0.000434107
0.0700952
-0.000391809
-0.000663748
0.0695521
-0.000465482
-0.000579714
0.0686785
-0.000579588
-0.000227378
0.0679614
-0.000677393
0.000227394
0.0676941
-0.000715113
0.000579729
0.0679616
-0.000677395
0.000663761
0.0686786
-0.000579591
0.000434115
0.0695521
-0.000465487
0.0700953
-0.000391813
-0.000867093
0.0710626
-0.000664175
-0.00132611
0.0700024
-0.000852917
-0.00115083
0.0681298
-0.0011507
-0.000447929
0.0667177
-0.00140092
0.000447969
0.0662198
-0.00149583
0.00115087
0.0667178
-0.00140092
0.00132615
0.0681299
-0.00115071
0.000867106
0.0700024
-0.000852927
0.0710627
-0.000664182
-0.00174478
0.0729942
-0.00105461
-0.00267894
0.0710529
-0.00152387
-0.00229715
0.0666599
-0.00229701
-0.000879428
0.0639455
-0.00292145
0.000879492
0.063087
-0.00315144
0.0022972
0.0639455
-0.00292146
0.00267898
0.06666
-0.00229701
0.00174479
0.071053
-0.00152388
0.0729942
-0.00105462
-0.00354947
0.0767191
-0.00145823
-0.00552844
0.0740245
-0.00258307
-0.00462805
0.061833
-0.0046279
-0.00170582
0.0570953
-0.00615322
0.00170591
0.0558628
-0.00668791
0.00462813
0.0570953
-0.00615322
0.0055285
0.0618331
-0.00462791
0.0035495
0.0740246
-0.00258309
0.0767192
-0.00145824
-0.00733793
0.0830122
-0.00139187
-0.0119183
0.0852638
-0.00386677
-0.00950029
0.0420984
-0.00950016
-0.00319446
0.03734
-0.0130696
0.00319458
0.0362767
-0.0142266
0.0095004
0.0373401
-0.0130696
0.0119184
0.0420984
-0.00950017
0.00733793
0.0852638
-0.00386678
0.0830123
-0.00139189
-0.0155371
0.0874977
0.000554231
-0.0281045
0.103741
-0.00361866
-0.0203243
-0.0203242
-0.00536096
-0.0278121
0.00536114
-0.0300008
0.0203245
-0.0278121
0.0281045
-0.0203242
0.0155371
0.103741
-0.00361867
0.0874977
0.000554215
0.00395771
0.0775626
0.00699581
0.10223
0.00787502
-0.00395772
0.10223
0.00787499
0.0775626
0.00699578
0.0467811
0.0457809
0.0156918
0.0769349
0.0618738
0.0262867
0.0583344
0.119815
0.0583345
0.0180378
0.110431
0.0738594
-0.0180377
0.107719
0.0783744
-0.0583343
0.110431
0.0738593
-0.0769349
0.119815
0.0583344
-0.0467811
0.0618738
0.0262866
0.0457808
0.0156918
0.0638513
0.020525
0.0991932
0.0338722
0.0671743
0.223688
0.0671744
0.0177251
0.201904
0.0785872
-0.017725
0.196319
0.081486
-0.0671742
0.201904
0.0785872
-0.0991931
0.223688
0.0671744
-0.0638513
0.0338721
0.0205249
0.0106602
0.246864
0.0106603
0.00625419
0.230533
0.0119456
-0.00625421
0.225744
0.012445
-0.0106602
0.230533
0.0119456
0.246864
0.0106603
0.00356363
0.231429
0.00356366
0.00213964
0.226214
0.00383525
-0.00213968
0.223994
0.00396027
-0.00356364
0.226214
0.00383524
0.231429
0.00356364
0.00118303
0.226423
0.00118305
0.000719405
0.224737
0.00124118
-0.00071944
0.223883