/*--------------------------------*- C++ -*----------------------------------*\
  =========                 |
  \\      /  F ield         | OpenFOAM: The Open Source CFD Toolbox
   \\    /   O peration     | Website:  https://openfoam.org
    \\  /    A nd           | Version:  6
     \\/     M anipulation  |
\*---------------------------------------------------------------------------*/
FoamFile
{
    version     2.0;
    format      ascii;
    class       volScalarField;
    location    "0.7";
    object      T;
}
// * * * * * * * * * * * * * * * * * * * * * * * * * * * * * * * * * * * * * //

dimensions      [0 0 0 1 0 0 0];

internalField   nonuniform List<scalar> 
3029
(
277.841
271.498
303.984
245.903
310.214
245.904
303.984
271.498
277.841
314.604
319.569
341.93
271.3
334.606
271.3
341.93
319.569
314.604
255.96
262.168
295.171
265.38
320.37
265.38
295.171
262.168
255.96
258.452
254.161
289.82
265.353
307.646
265.353
289.819
254.16
258.452
267.584
256.916
289.11
267.072
300.253
267.072
289.109
256.915
267.583
273.722
260.481
288.749
268.778
296.186
268.777
288.747
260.48
273.721
276.885
263.048
288.387
270.204
293.816
270.203
288.385
263.046
276.883
278.273
264.713
288.021
271.404
292.284
271.403
288.019
264.711
278.272
278.743
265.816
287.66
272.451
291.194
272.45
287.657
265.813
278.741
278.761
266.6
287.314
273.396
290.358
273.394
287.311
266.597
278.759
278.56
267.204
286.994
274.291
289.795
274.29
286.991
267.2
278.558
278.242
267.692
286.699
275.154
289.269
275.152
286.695
267.688
278.239
277.833
268.097
286.408
276.316
290.503
276.314
286.404
268.092
277.83
277.347
268.397
285.972
277.036
288.074
277.035
285.968
268.392
277.343
276.927
268.705
285.191
280.981
319.943
280.979
285.186
268.7
276.923
276.975
269.068
282.128
267.269
265.182
267.267
282.123
269.062
276.97
279.164
273.41
282.112
245.285
416.974
245.283
282.107
273.404
279.159
282.486
279.089
279.686
237.463
487.872
237.461
279.681
279.082
282.48
284.382
281.121
273.351
233.975
463.257
233.972
273.346
281.114
284.376
285.222
281.617
270.078
238.71
474.744
238.707
270.073
281.611
285.216
285.786
281.976
269.364
244.819
478.347
244.816
269.359
281.969
285.779
286.505
282.654
270.052
250.589
476.24
250.585
270.047
282.647
286.498
287.559
283.769
271.544
256.026
472.017
256.022
271.539
283.761
287.553
289.021
285.35
273.61
261.386
467.335
261.382
273.605
285.343
289.014
290.921
287.411
276.167
266.881
462.795
266.877
276.162
287.403
290.914
293.262
289.919
279.094
272.597
458.509
272.593
279.088
289.912
293.255
296.037
292.82
282.386
278.73
454.606
278.726
282.381
292.812
296.03
299.289
295.873
285.127
284.38
449.814
284.376
285.122
295.866
299.282
303.484
299.375
289.693
292.338
447.674
292.334
289.688
299.367
303.476
309.964
303.355
288.573
291.261
434.269
291.258
288.568
303.347
309.956
323.59
316.449
313.25
327.67
472.823
327.667
313.244
316.442
323.582
344.616
339.77
361.847
385.48
541.742
385.476
361.841
339.763
344.607
363.913
356.005
324.431
339.791
475.375
339.787
324.425
355.997
363.904
428.625
432.754
256.199
149.89
196.516
149.887
256.194
432.746
428.616
271.498
253.688
314.011
256.927
260.353
256.927
314.01
253.688
271.498
319.569
349.159
414.988
301.357
275.702
301.357
414.988
349.159
319.569
262.168
288.318
359.281
303.576
278.512
303.576
359.28
288.318
262.168
254.161
261.658
325.21
298.991
277.915
298.991
325.209
261.657
254.16
256.916
255
310.101
295.633
277.342
295.633
310.099
254.998
256.915
260.481
255.065
303.865
293.919
277.312
293.919
303.863
255.063
260.479
263.047
256.781
301.291
293.2
277.677
293.199
301.289
256.779
263.045
264.713
258.674
300.186
292.987
278.263
292.986
300.183
258.671
264.71
265.815
260.42
299.673
293.016
278.966
293.016
299.669
260.417
265.812
266.6
261.994
299.403
293.161
279.738
293.16
299.399
261.99
266.597
267.204
263.42
299.231
293.37
280.599
293.369
299.226
263.416
267.199
267.691
264.702
299.089
293.609
281.483
293.607
299.084
264.698
267.687
268.096
265.862
298.886
293.915
282.979
293.914
298.881
265.856
268.091
268.397
266.842
298.431
293.887
283.094
293.885
298.425
266.836
268.391
268.705
267.601
297.286
293.59
292.157
293.588
297.28
267.595
268.699
269.067
268.134
294.49
285.747
261.679
285.745
294.484
268.128
269.061
273.41
270.436
290.988
270.601
360.32
270.599
290.982
270.429
273.403
279.088
273.139
285.409
264.52
535.15
264.518
285.403
273.132
279.081
281.12
274.051
280.453
263.599
546.227
263.595
280.447
274.044
281.113
281.617
274.461
278.275
267.353
541.474
267.349
278.27
274.453
281.609
281.975
275.168
278.239
272.863
534.805
272.859
278.233
275.16
281.967
282.654
276.364
279.484
278.872
528.063
278.867
279.478
276.356
282.646
283.768
278.058
281.557
285.128
521.866
285.123
281.551
278.051
283.76
285.35
280.251
284.287
291.718
516.412
291.713
284.281
280.243
285.342
287.41
282.968
287.672
298.834
511.807
298.829
287.666
282.959
287.402
289.919
286.148
291.637
306.727
507.965
306.721
291.631
286.14
289.91
292.82
289.93
296.713
315.737
504.631
315.732
296.706
289.921
292.811
295.873
293.047
300.525
325.698
499.729
325.693
300.519
293.038
295.865
299.374
298.091
312.969
336.79
491.861
336.785
312.962
298.083
299.366
303.355
289.142
279.481
325.863
441.352
325.859
279.474
289.134
303.346
316.449
300.983
422.009
386.733
482.238
386.73
422.002
300.975
316.441
339.77
317.774
478.565
424.692
508.584
424.688
478.558
317.767
339.761
356.005
337.7
473.907
498.085
612.091
498.081
473.899
337.692
355.997
432.754
486.941
520.82
502.845
593.349
502.838
520.811
486.932
432.746
303.984
314.011
345.351
301.631
261.673
301.631
345.35
314.01
303.984
341.93
414.988
447.386
346.487
271.625
346.487
447.385
414.988
341.93
295.171
359.28
428.777
356.629
276.236
356.628
428.776
359.279
295.17
289.82
325.21
399.309
353.355
277.878
353.354
399.307
325.208
289.819
289.11
310.101
379.647
348.09
278.837
348.09
379.645
310.099
289.109
288.748
303.865
368.137
343.755
279.92
343.755
368.134
303.862
288.746
288.387
301.291
361.221
340.539
281.253
340.539
361.217
301.288
288.384
288.02
300.185
356.649
338.112
282.774
338.111
356.645
300.182
288.017
287.66
299.672
353.261
336.182
284.411
336.181
353.256
299.668
287.656
287.313
299.402
350.492
334.571
286.123
334.57
350.486
299.398
287.309
286.994
299.23
348.067
333.184
287.904
333.183
348.061
299.225
286.989
286.698
299.089
345.835
331.963
289.751
331.962
345.829
299.083
286.693
286.407
298.885
343.663
330.854
291.748
330.853
343.657
298.879
286.401
285.971
298.43
341.313
329.652
293.587
329.65
341.306
298.423
285.965
285.19
297.285
338.383
328.042
296.443
328.04
338.376
297.278
285.183
282.127
294.489
334.24
324.692
294.637
324.69
334.233
294.482
282.12
282.111
290.987
330.624
321.601
310.115
321.599
330.616
290.98
282.104
279.685
285.408
327.385
319.905
360.375
319.902
327.378
285.4
279.677
273.35
280.451
323.891
318.407
382.722
318.404
323.883
280.444
273.342
270.076
278.274
321.646
318.907
392.43
318.904
321.638
278.267
270.069
269.363
278.238
320.875
321.212
398.009
321.208
320.868
278.23
269.355
270.051
279.483
321.275
324.796
402.596
324.792
321.267
279.475
270.043
271.543
281.557
322.597
329.371
407.312
329.367
322.589
281.548
271.535
273.609
284.287
324.77
334.896
412.654
334.891
324.762
284.278
273.601
276.166
287.672
327.82
341.462
418.804
341.457
327.812
287.664
276.158
279.093
291.637
332.008
349.618
426.144
349.613
332
291.628
279.085
282.385
296.712
337.418
359.333
434.435
359.328
337.41
296.704
282.378
285.127
300.525
347.124
376.636
448.205
376.631
347.115
300.516
285.119
289.693
312.969
361.807
391.626
459.164
391.621
361.799
312.96
289.685
288.573
279.48
437.724
518.225
563.054
518.22
437.714
279.472
288.565
313.25
422.009
989.047
620.344
704.349
620.341
989.036
422.001
313.242
361.847
478.565
478.557
361.838
324.431
473.907
315.367
326.789
419.991
326.786
315.362
473.898
324.423
256.2
520.821
426.936
440.696
523.112
440.69
426.928
520.811
256.195
382.678
402.193
479.423
402.188
382.671
386.947
398.909
474.037
398.903
386.94
395.158
402.276
474.774
402.27
395.151
401.637
406.42
476.539
406.415
401.63
407.045
410.679
478.695
410.673
407.038
411.951
414.916
481.017
414.91
411.944
416.696
419.159
483.442
419.153
416.689
421.444
423.454
485.96
423.448
421.436
426.18
427.75
488.524
427.744
426.172
431.203
432.304
491.296
432.298
431.195
435.392
436.092
493.598
436.087
435.384
443.379
443.335
498.166
443.329
443.372
245.903
256.926
301.631
307.752
278.88
307.75
301.629
256.926
245.903
271.299
301.357
346.486
327.943
282.576
327.941
346.485
301.356
271.299
265.38
303.575
356.627
336.241
283.576
336.239
356.625
303.574
265.379
265.353
298.99
353.353
336.83
283.224
336.829
353.351
298.988
265.352
267.072
295.632
348.088
334.855
282.928
334.854
348.086
295.63
267.071
268.777
293.918
343.753
332.55
283.204
332.548
343.75
293.915
268.775
270.203
293.198
340.537
330.568
284.085
330.566
340.534
293.196
270.201
271.403
292.985
338.109
329.002
285.464
329.001
338.106
292.982
271.401
272.45
293.014
336.179
327.81
287.234
327.809
336.175
293.011
272.447
273.394
293.159
334.568
326.946
289.335
326.944
334.564
293.155
273.391
274.289
293.368
333.181
326.388
291.743
326.386
333.176
293.364
274.285
275.152
293.606
331.961
326.134
294.462
326.132
331.956
293.602
275.147
276.314
293.913
330.852
326.187
297.508
326.185
330.846
293.907
276.309
277.034
293.884
329.649
326.524
300.895
326.521
329.644
293.879
277.029
280.979
293.587
328.039
327.183
304.783
327.181
328.034
293.581
280.974
267.267
285.744
324.69
328.255
309.552
328.252
324.683
285.738
267.261
245.283
270.599
321.599
331.942
318.393
331.939
321.592
270.593
245.278
237.462
264.517
319.902
336.839
329.786
336.835
319.895
264.512
237.458
233.973
263.596
318.404
340.171
338.643
340.167
318.397
263.59
233.97
238.708
267.35
318.905
343.225
346.171
343.22
318.898
267.344
238.705
244.817
272.86
321.209
346.935
353.63
346.931
321.202
272.854
244.814
250.587
278.869
324.793
351.592
361.597
351.588
324.785
278.862
250.583
256.024
285.125
329.368
357.259
370.295
357.255
329.361
285.118
256.02
261.384
291.715
334.893
364.01
379.863
364.005
334.885
291.708
261.379
266.878
298.831
341.459
372.002
390.485
371.997
341.451
298.823
266.874
272.595
306.723
349.615
381.765
402.651
381.76
349.607
306.716
272.59
278.727
315.733
359.331
393.87
417.001
393.864
359.322
315.725
278.723
284.378
325.695
376.634
412.746
436.996
412.741
376.625
325.687
284.373
292.335
336.786
391.623
435.75
461.326
435.744
391.615
336.779
292.33
291.258
325.86
518.223
522.773
528.351
522.768
518.213
325.854
291.254
327.667
386.731
620.342
350.748
388.878
350.746
620.335
386.724
327.663
385.477
424.69
424.683
385.471
339.789
498.083
326.788
256.977
316.124
256.975
326.784
498.076
339.783
149.889
502.844
440.695
409.935
453.583
409.932
440.688
502.834
149.886
402.192
395.555
444.265
395.551
402.185
398.908
385.93
433.191
385.926
398.9
402.275
384.76
429.592
384.755
402.267
406.42
386.963
429.917
386.959
406.412
410.678
390.523
432.031
390.519
410.67
414.915
394.561
434.857
394.557
414.907
419.159
398.776
437.963
398.771
419.151
423.453
403.089
441.206
403.084
423.445
427.75
407.411
444.486
407.406
427.742
432.303
411.976
447.97
411.971
432.295
436.092
415.766
450.868
415.762
436.084
443.335
422.999
456.44
422.994
443.327
310.213
260.352
261.671
278.879
279.821
278.877
261.67
260.351
310.212
334.605
275.701
271.623
282.575
279.768
282.572
271.622
275.7
334.604
320.369
278.51
276.235
283.575
277.956
283.573
276.233
278.509
320.367
307.645
277.913
277.876
283.222
275.95
283.22
277.874
277.912
307.643
300.251
277.341
278.835
282.926
274.831
282.924
278.833
277.339
300.249
296.184
277.31
279.918
283.202
274.867
283.2
279.915
277.307
296.182
293.814
277.675
281.251
284.083
275.939
284.081
281.248
277.672
293.811
292.282
278.26
282.771
285.462
277.838
285.459
282.768
278.257
292.279
291.191
278.964
284.408
287.232
280.393
287.23
284.405
278.96
291.188
290.356
279.735
286.12
289.333
283.493
289.33
286.116
279.732
290.352
289.792
280.596
287.901
291.741
287.08
291.738
287.897
280.592
289.788
289.266
281.48
289.747
294.46
291.13
294.457
289.744
281.476
289.262
290.499
282.976
291.745
297.506
295.638
297.503
291.741
282.972
290.495
288.07
283.09
293.583
300.893
300.627
300.89
293.579
283.086
288.066
319.939
292.154
296.439
304.781
306.314
304.778
296.434
292.149
319.933
265.179
261.676
294.633
309.549
313.297
309.546
294.628
261.671
265.173
416.973
360.316
310.111
318.391
324.11
318.387
310.106
360.311
416.97
487.872
535.146
360.371
329.784
336.465
329.779
360.365
535.141
487.871
463.258
546.223
382.718
338.641
346.575
338.636
382.711
546.219
463.257
474.744
541.471
392.426
346.168
355.315
346.163
392.419
541.466
474.744
478.347
534.802
398.005
353.627
363.912
353.622
397.998
534.797
478.347
476.24
528.061
402.592
361.594
372.992
361.589
402.586
528.055
476.24
472.017
521.864
407.309
370.293
382.799
370.288
407.302
521.858
472.016
467.336
516.41
412.65
379.861
393.463
379.855
412.643
516.404
467.334
462.796
511.805
418.8
390.483
405.188
390.477
418.793
511.8
462.794
458.51
507.965
426.141
402.649
418.473
402.644
426.134
507.959
458.509
454.608
504.631
434.432
417
434.12
416.994
434.424
504.625
454.606
449.816
499.729
448.203
436.994
454.866
436.989
448.194
499.723
449.815
447.677
491.861
459.161
461.325
480.613
461.319
459.153
491.855
447.675
434.272
441.353
563.053
528.351
528.114
528.346
563.043
441.347
434.27
472.826
482.238
704.347
388.878
440.886
388.877
704.339
482.232
472.823
541.746
508.583
508.577
541.743
475.379
612.094
419.992
316.122
299.985
316.119
419.987
612.089
475.377
196.518
593.354
523.115
453.583
394.796
453.58
523.11
593.349
196.517
479.426
444.267
401.908
444.264
479.423
474.04
433.193
397.053
433.19
474.036
474.777
429.593
395.348
429.591
474.773
476.542
429.919
396.622
429.917
476.538
478.699
432.033
399.538
432.031
478.695
481.02
434.859
403.166
434.857
481.016
483.445
437.965
407.072
437.963
483.441
485.964
441.208
411.095
441.206
485.96
488.527
444.488
415.12
444.485
488.523
491.299
447.972
419.332
447.97
491.295
493.601
450.87
422.831
450.868
493.597
498.17
456.442
429.43
456.44
498.165
245.903
256.926
301.63
307.749
278.876
307.748
301.629
256.926
245.903
271.3
301.357
346.486
327.94
282.572
327.94
346.485
301.356
271.299
265.38
303.575
356.627
336.238
283.572
336.238
356.626
303.574
265.379
265.352
298.989
353.352
336.828
283.219
336.827
353.351
298.989
265.352
267.071
295.631
348.088
334.852
282.923
334.852
348.086
295.63
267.07
268.776
293.917
343.752
332.547
283.199
332.547
343.751
293.916
268.775
270.202
293.197
340.536
330.565
284.08
330.565
340.534
293.195
270.201
271.402
292.984
338.108
328.999
285.459
328.999
338.106
292.982
271.4
272.448
293.013
336.178
327.807
287.229
327.807
336.175
293.011
272.446
273.392
293.157
334.567
326.943
289.329
326.942
334.564
293.155
273.39
274.287
293.366
333.179
326.384
291.738
326.383
333.176
293.363
274.285
275.149
293.604
331.959
326.13
294.456
326.129
331.955
293.601
275.147
276.311
293.91
330.849
326.183
297.503
326.182
330.846
293.907
276.308
277.031
293.882
329.647
326.52
300.889
326.518
329.643
293.879
277.028
280.976
293.585
328.037
327.179
304.777
327.177
328.033
293.581
280.972
267.264
285.742
324.687
328.25
309.545
328.249
324.683
285.738
267.26
245.281
270.596
321.595
331.937
318.386
331.935
321.591
270.592
245.278
237.459
264.515
319.898
336.833
329.778
336.831
319.894
264.511
237.457
233.971
263.593
318.4
340.165
338.635
340.163
318.396
263.589
233.969
238.706
267.347
318.901
343.218
346.162
343.216
318.896
267.343
238.705
244.815
272.857
321.205
346.929
353.621
346.926
321.2
272.853
244.813
250.585
278.865
324.789
351.586
361.588
351.583
324.784
278.862
250.583
256.022
285.122
329.364
357.253
370.287
357.25
329.359
285.118
256.02
261.382
291.713
334.889
364.004
379.854
364.001
334.884
291.709
261.38
266.878
298.829
341.456
371.995
390.476
371.992
341.45
298.825
266.876
272.595
306.722
349.612
381.759
402.643
381.755
349.607
306.718
272.593
278.728
315.733
359.327
393.864
416.994
393.86
359.322
315.729
278.726
284.379
325.696
376.631
412.74
436.988
412.737
376.626
325.691
284.377
292.337
336.788
391.622
435.744
461.319
435.741
391.616
336.784
292.335
291.262
325.863
518.221
522.768
528.346
522.765
518.215
325.859
291.26
327.671
386.732
620.341
350.747
388.878
350.745
620.335
386.728
327.669
385.481
424.691
424.687
385.479
339.792
498.085
326.789
256.978
316.122
256.977
326.787
498.08
339.789
149.89
502.844
440.695
409.937
453.583
409.934
440.691
502.838
149.888
402.192
395.556
444.266
395.554
402.188
398.907
385.93
433.192
385.928
398.904
402.274
384.76
429.593
384.758
402.271
406.419
386.964
429.919
386.961
406.415
410.677
390.524
432.033
390.521
410.674
414.914
394.562
434.859
394.559
414.911
419.157
398.776
437.965
398.774
419.154
423.452
403.089
441.208
403.086
423.449
427.749
407.411
444.488
407.408
427.745
432.302
411.976
447.972
411.974
432.299
436.091
415.766
450.87
415.764
436.087
443.333
422.999
456.442
422.997
443.33
303.984
314.01
345.349
301.629
261.669
301.628
345.349
314.01
303.984
341.93
414.987
447.384
346.484
271.621
346.484
447.384
414.987
341.93
295.17
359.279
428.775
356.625
276.232
356.625
428.774
359.279
295.17
289.819
325.207
399.306
353.35
277.873
353.351
399.305
325.207
289.819
289.108
310.097
379.643
348.085
278.832
348.085
379.642
310.097
289.108
288.746
303.861
368.132
343.75
279.915
343.75
368.131
303.861
288.745
288.383
301.287
361.215
340.533
281.247
340.533
361.213
301.286
288.383
288.016
300.18
356.642
338.105
282.767
338.105
356.641
300.179
288.016
287.655
299.667
353.253
336.174
284.404
336.174
353.252
299.665
287.654
287.308
299.396
350.483
334.563
286.116
334.563
350.482
299.395
287.307
286.988
299.223
348.058
333.175
287.896
333.175
348.056
299.222
286.987
286.692
299.081
345.826
331.954
289.743
331.954
345.824
299.079
286.691
286.401
298.877
343.653
330.845
291.74
330.845
343.651
298.875
286.399
285.965
298.422
341.303
329.642
293.578
329.642
341.3
298.42
285.963
285.183
297.277
338.373
328.032
296.433
328.032
338.37
297.275
285.181
282.12
294.481
334.229
324.682
294.627
324.682
334.227
294.478
282.118
282.104
290.979
330.613
321.591
310.104
321.591
330.61
290.977
282.102
279.678
285.4
327.375
319.894
360.364
319.893
327.372
285.397
279.675
273.343
280.444
323.88
318.396
382.71
318.395
323.877
280.441
273.34
270.07
278.267
321.636
318.896
392.418
318.895
321.633
278.264
270.067
269.357
278.23
320.865
321.201
397.998
321.2
320.862
278.227
269.353
270.045
279.475
321.265
324.785
402.585
324.784
321.262
279.472
270.042
271.537
281.549
322.587
329.36
407.3
329.358
322.584
281.545
271.533
273.602
284.279
324.76
334.885
412.642
334.883
324.757
284.275
273.599
276.16
287.664
327.81
341.451
418.792
341.45
327.807
287.661
276.156
279.087
291.629
331.999
349.608
426.133
349.606
331.996
291.626
279.083
282.379
296.705
337.409
359.323
434.423
359.321
337.406
296.702
282.376
285.121
300.518
347.115
376.627
448.194
376.625
347.112
300.514
285.117
289.688
312.963
361.799
391.617
459.153
391.615
361.796
312.959
289.684
288.568
279.475
437.717
518.216
563.044
518.214
437.713
279.472
288.564
313.244
422.004
989.039
620.337
704.341
620.336
989.034
422.001
313.241
361.842
478.56
478.557
361.838
324.426
473.902
315.364
326.787
419.989
326.786
315.363
473.899
324.423
256.196
520.815
426.931
440.692
523.112
440.691
426.929
520.811
256.194
382.674
402.189
479.424
402.188
382.672
386.943
398.904
474.038
398.903
386.94
395.154
402.271
474.775
402.27
395.151
401.633
406.416
476.54
406.415
401.63
407.042
410.675
478.697
410.674
407.038
411.948
414.912
481.018
414.911
411.944
416.693
419.155
483.443
419.154
416.689
421.44
423.45
485.962
423.449
421.437
426.176
427.747
488.525
427.745
426.173
431.2
432.3
491.297
432.299
431.196
435.388
436.089
493.599
436.088
435.385
443.376
443.331
498.168
443.33
443.372
271.498
253.688
314.01
256.926
260.35
256.926
314.01
253.688
271.498
319.569
349.158
414.987
301.356
275.699
301.356
414.987
349.158
319.569
262.167
288.317
359.279
303.574
278.508
303.574
359.278
288.317
262.167
254.16
261.656
325.207
298.988
277.911
298.988
325.207
261.656
254.16
256.915
254.998
310.097
295.629
277.338
295.629
310.097
254.997
256.915
260.479
255.062
303.861
293.915
277.307
293.915
303.86
255.062
260.478
263.045
256.778
301.287
293.195
277.672
293.195
301.286
256.777
263.044
264.71
258.67
300.18
292.981
278.257
292.981
300.179
258.669
264.709
265.812
260.416
299.667
293.01
278.96
293.01
299.665
260.415
265.811
266.596
261.989
299.396
293.154
279.731
293.154
299.395
261.987
266.595
267.199
263.414
299.223
293.362
280.592
293.362
299.222
263.413
267.198
267.686
264.696
299.081
293.6
281.475
293.6
299.079
264.694
267.685
268.09
265.855
298.877
293.906
282.971
293.906
298.875
265.853
268.089
268.39
266.835
298.422
293.878
283.085
293.878
298.42
266.833
268.389
268.698
267.593
297.276
293.58
292.148
293.58
297.274
267.592
268.697
269.06
268.126
294.48
285.737
261.671
285.737
294.478
268.124
269.058
273.402
270.427
290.978
270.592
360.31
270.591
290.976
270.425
273.4
279.08
273.13
285.398
264.511
535.141
264.511
285.396
273.128
279.078
281.112
274.042
280.442
263.59
546.218
263.589
280.441
274.04
281.11
281.609
274.452
278.265
267.344
541.466
267.343
278.264
274.449
281.606
281.967
275.159
278.229
272.854
534.797
272.852
278.227
275.156
281.965
282.645
276.354
279.474
278.863
528.055
278.861
279.472
276.352
282.643
283.76
278.049
281.547
285.119
521.858
285.117
281.546
278.047
283.757
285.342
280.242
284.277
291.709
516.404
291.707
284.276
280.24
285.339
287.402
282.958
287.663
298.826
511.8
298.823
287.661
282.956
287.4
289.911
286.139
291.628
306.719
507.959
306.716
291.626
286.137
289.908
292.812
289.921
296.704
315.729
504.625
315.727
296.702
289.919
292.809
295.866
293.039
300.517
325.691
499.724
325.689
300.515
293.036
295.863
299.368
298.083
312.961
336.783
491.856
336.781
312.959
298.081
299.365
303.348
289.135
279.474
325.858
441.348
325.857
279.472
289.133
303.345
316.443
300.977
422.004
386.728
482.233
386.727
422.001
300.974
316.44
339.764
317.768
478.56
424.687
508.578
424.686
478.557
317.766
339.762
355.999
337.694
473.901
498.081
612.091
498.079
473.899
337.692
355.997
432.75
486.937
520.815
502.84
593.351
502.838
520.812
486.934
432.748
277.841
271.498
303.984
245.903
310.212
245.903
303.984
271.498
277.841
314.604
319.569
341.93
271.299
334.604
271.299
341.93
319.569
314.604
255.96
262.167
295.17
265.379
320.367
265.379
295.17
262.167
255.96
258.452
254.16
289.818
265.351
307.643
265.352
289.818
254.16
258.452
267.583
256.915
289.108
267.07
300.249
267.07
289.108
256.915
267.583
273.721
260.479
288.746
268.775
296.181
268.775
288.745
260.478
273.72
276.883
263.045
288.383
270.2
293.81
270.2
288.383
263.044
276.882
278.271
264.71
288.016
271.4
292.279
271.4
288.016
264.709
278.27
278.74
265.812
287.655
272.446
291.188
272.446
287.654
265.811
278.739
278.758
266.596
287.308
273.39
290.352
273.39
287.307
266.595
278.757
278.557
267.198
286.987
274.285
289.788
274.285
286.987
267.198
278.555
278.238
267.686
286.692
275.147
289.261
275.147
286.691
267.685
278.236
277.828
268.09
286.4
276.308
290.494
276.308
286.399
268.089
277.827
277.342
268.39
285.964
277.028
288.066
277.028
285.963
268.389
277.34
276.922
268.698
285.182
280.973
319.933
280.972
285.181
268.697
276.92
276.969
269.06
282.119
267.261
265.172
267.26
282.117
269.058
276.967
279.158
273.402
282.102
245.278
416.97
245.278
282.102
273.4
279.156
282.479
279.08
279.676
237.458
487.871
237.457
279.675
279.078
282.477
284.375
281.112
273.341
233.97
463.257
233.969
273.34
281.11
284.373
285.215
281.608
270.068
238.705
474.743
238.704
270.067
281.606
285.213
285.778
281.966
269.355
244.814
478.347
244.813
269.354
281.964
285.776
286.498
282.645
270.043
250.584
476.239
250.582
270.042
282.643
286.495
287.552
283.759
271.535
256.021
472.016
256.019
271.534
283.757
287.55
289.014
285.341
273.6
261.381
467.335
261.379
273.599
285.339
289.012
290.914
287.402
276.158
266.876
462.795
266.874
276.157
287.4
290.912
293.255
289.91
279.085
272.593
458.509
272.591
279.084
289.908
293.253
296.03
292.811
282.378
278.726
454.607
278.724
282.376
292.809
296.028
299.283
295.865
285.12
284.376
449.816
284.375
285.118
295.863
299.28
303.477
299.367
289.686
292.334
447.677
292.333
289.685
299.365
303.475
309.958
303.348
288.566
291.258
434.272
291.257
288.565
303.346
309.955
323.584
316.442
313.243
327.668
472.825
327.666
313.242
316.441
323.582
344.609
339.763
361.84
385.477
541.745
385.476
361.839
339.762
344.607
363.907
355.999
324.425
339.788
475.378
339.787
324.424
355.997
363.904
428.621
432.75
256.196
149.888
196.518
149.888
256.195
432.749
428.619
)
;

boundaryField
{
    injectionXMinus
    {
        type            fixedValue;
        value           uniform 400;
    }
    injectionXPlus
    {
        type            fixedValue;
        value           uniform 400;
    }
    injectionYMinus
    {
        type            fixedValue;
        value           uniform 400;
    }
    injectionYPlus
    {
        type            fixedValue;
        value           uniform 400;
    }
    inletXMinus
    {
        type            fixedValue;
        value           uniform 293.15;
    }
    inletXPlus
    {
        type            fixedValue;
        value           uniform 293.15;
    }
    inletYMinus
    {
        type            fixedValue;
        value           uniform 293.15;
    }
    inletYPlus
    {
        type            fixedValue;
        value           uniform 293.15;
    }
    outlet
    {
        type            zeroGradient;
    }
    valve
    {
        type            zeroGradient;
    }
    walls
    {
        type            zeroGradient;
    }
}


// ************************************************************************* //
