/*--------------------------------*- C++ -*----------------------------------*\
  =========                 |
  \\      /  F ield         | OpenFOAM: The Open Source CFD Toolbox
   \\    /   O peration     | Website:  https://openfoam.org
    \\  /    A nd           | Version:  6
     \\/     M anipulation  |
\*---------------------------------------------------------------------------*/
FoamFile
{
    version     2.0;
    format      ascii;
    class       volScalarField;
    location    "0.8";
    object      T;
}
// * * * * * * * * * * * * * * * * * * * * * * * * * * * * * * * * * * * * * //

dimensions      [0 0 0 1 0 0 0];

internalField   nonuniform List<scalar> 
3029
(
277.841
271.498
303.984
245.904
310.213
245.904
303.984
271.498
277.841
314.604
319.569
341.93
271.3
334.605
271.3
341.93
319.569
314.604
255.96
262.168
295.171
265.38
320.368
265.38
295.171
262.168
255.96
258.452
254.161
289.82
265.354
307.643
265.354
289.819
254.16
258.452
267.584
256.916
289.11
267.073
300.247
267.073
289.109
256.915
267.583
273.722
260.481
288.748
268.779
296.176
268.779
288.747
260.48
273.721
276.885
263.048
288.387
270.207
293.798
270.206
288.385
263.046
276.883
278.273
264.713
288.021
271.408
292.252
271.407
288.018
264.711
278.272
278.743
265.816
287.66
272.455
291.137
272.454
287.657
265.813
278.741
278.762
266.601
287.314
273.398
290.261
273.396
287.31
266.598
278.759
278.561
267.204
286.993
274.286
289.632
274.285
286.989
267.201
278.558
278.241
267.69
286.693
275.13
288.999
275.129
286.689
267.686
278.238
277.828
268.089
286.39
276.253
290.069
276.251
286.386
268.084
277.824
277.329
268.373
285.928
276.885
287.368
276.884
285.924
268.368
277.325
276.881
268.644
285.084
280.687
318.826
280.685
285.079
268.639
276.876
276.869
268.934
281.926
266.648
263.102
266.646
281.921
268.929
276.865
278.95
273.146
281.663
244.394
416.06
244.392
281.658
273.14
278.945
282.089
278.588
278.831
236.519
487.725
236.517
278.826
278.582
282.083
283.703
280.271
272.029
232.861
463.281
232.859
272.025
280.265
283.698
284.132
280.276
268.157
237.258
474.772
237.255
268.152
280.27
284.126
284.112
279.958
266.657
242.874
478.272
242.871
266.652
279.952
284.106
284.031
279.729
266.328
247.991
475.968
247.988
266.323
279.722
284.024
284.016
279.654
266.531
252.602
471.444
252.598
266.527
279.647
284.01
284.091
279.715
267.001
256.943
466.339
256.939
266.996
279.708
284.084
284.24
279.88
267.626
261.207
461.226
261.203
267.621
279.873
284.233
284.433
280.09
268.277
265.475
456.191
265.471
268.273
280.083
284.426
284.647
280.275
268.942
269.908
451.279
269.904
268.937
280.268
284.64
284.935
280.239
268.876
273.739
445.267
273.735
268.871
280.232
284.928
285.771
280.301
270.19
279.275
440.965
279.271
270.186
280.294
285.763
288.42
280.576
266.412
276.727
426.13
276.724
266.407
280.569
288.413
297.311
289.131
286.484
307.289
457.838
307.286
286.479
289.125
297.304
312.029
306.236
326.829
357.588
520.076
357.585
326.823
306.229
312.021
324.128
316.402
289.816
313.733
458.179
313.73
289.81
316.395
324.12
364.524
367.891
220.249
139.002
196.855
139
220.245
367.883
364.516
271.498
253.688
314.011
256.928
260.345
256.928
314.01
253.688
271.498
319.569
349.159
414.988
301.358
275.694
301.358
414.988
349.159
319.569
262.168
288.318
359.281
303.577
278.502
303.577
359.28
288.318
262.168
254.161
261.658
325.21
298.992
277.903
298.992
325.209
261.657
254.16
256.916
255
310.101
295.635
277.327
295.634
310.099
254.998
256.915
260.481
255.065
303.866
293.921
277.289
293.921
303.863
255.064
260.479
263.047
256.781
301.292
293.203
277.641
293.202
301.289
256.779
263.045
264.713
258.674
300.186
292.989
278.204
292.989
300.183
258.671
264.711
265.816
260.421
299.673
293.016
278.867
293.015
299.669
260.418
265.813
266.601
261.995
299.402
293.152
279.574
293.151
299.398
261.991
266.597
267.204
263.42
299.226
293.34
280.329
293.338
299.221
263.416
267.2
267.69
264.699
299.073
293.535
281.05
293.533
299.068
264.694
267.685
268.088
265.848
298.845
293.759
282.295
293.757
298.84
265.842
268.083
268.373
266.803
298.339
293.588
282.058
293.586
298.334
266.797
268.367
268.644
267.51
297.1
293.052
290.557
293.05
297.094
267.504
268.638
268.934
267.946
294.142
284.865
259.548
284.863
294.136
267.94
268.928
273.145
270.082
290.384
269.258
357.184
269.256
290.378
270.075
273.138
278.587
272.523
284.426
262.669
531.609
262.666
284.42
272.515
278.58
280.271
273.055
278.964
261.119
542.154
261.116
278.958
273.048
280.263
280.276
272.934
276.11
264.032
536.433
264.028
276.105
272.926
280.268
279.958
272.915
275.183
268.454
528.453
268.45
275.177
272.907
279.95
279.729
273.144
275.279
273.103
520.085
273.099
275.274
273.136
279.721
279.653
273.582
275.904
277.703
511.954
277.698
275.898
273.574
279.645
279.714
274.184
276.844
282.313
504.248
282.308
276.838
274.176
279.706
279.88
274.929
278.061
287.1
497.055
287.095
278.055
274.92
279.872
280.089
275.736
279.465
292.276
490.251
292.271
279.459
275.727
280.081
280.275
276.689
281.483
298.135
483.492
298.13
281.477
276.681
280.267
280.238
276.72
282.159
304.452
474.629
304.447
282.153
276.712
280.231
280.301
277.915
289.458
311.07
461.583
311.066
289.452
277.907
280.293
280.576
266.919
258.307
297.605
408.505
297.601
258.301
266.912
280.568
289.131
273.244
371.38
338.806
425.468
338.803
371.374
273.237
289.124
306.236
284.994
415.839
366.256
439.382
366.254
415.833
284.988
306.228
316.402
301.183
414.342
436.495
546.61
436.492
414.335
301.175
316.394
367.891
414.563
444.879
442.441
552.685
442.435
444.871
414.555
367.883
303.984
314.011
345.351
301.632
261.701
301.632
345.35
314.01
303.984
341.93
414.988
447.385
346.489
271.653
346.489
447.384
414.988
341.93
295.171
359.28
428.777
356.631
276.263
356.631
428.775
359.279
295.17
289.82
325.21
399.308
353.358
277.899
353.358
399.306
325.208
289.819
289.11
310.101
379.646
348.095
278.842
348.095
379.644
310.099
289.109
288.748
303.865
368.136
343.76
279.896
343.759
368.133
303.863
288.746
288.386
301.291
361.219
340.539
281.175
340.539
361.215
301.288
288.384
288.02
300.186
356.646
338.099
282.607
338.098
356.641
300.182
288.017
287.66
299.673
353.254
336.139
284.104
336.138
353.249
299.668
287.656
287.313
299.401
350.476
334.472
285.606
334.471
350.471
299.396
287.309
286.992
299.225
348.032
332.987
287.083
332.985
348.026
299.22
286.987
286.692
299.072
345.76
331.604
288.506
331.602
345.754
299.067
286.687
286.389
298.844
343.514
330.241
289.921
330.239
343.507
298.838
286.383
285.927
298.338
341.035
328.663
291.003
328.661
341.028
298.331
285.921
285.082
297.099
337.897
326.524
292.872
326.523
337.89
297.092
285.076
281.925
294.141
333.441
322.489
289.989
322.487
333.434
294.134
281.918
281.661
290.383
329.38
318.553
304.063
318.551
329.373
290.376
281.654
278.829
284.425
325.544
315.828
352.604
315.825
325.537
284.417
278.822
272.028
278.963
321.283
313.083
373.12
313.08
321.276
278.955
272.02
268.155
276.109
318.058
312.042
380.643
312.04
318.051
276.102
268.148
266.656
275.182
316.045
312.468
383.639
312.465
316.038
275.174
266.648
266.327
275.279
314.898
313.811
385.242
313.808
314.89
275.271
266.32
266.53
275.903
314.331
315.759
386.574
315.755
314.323
275.895
266.523
267
276.843
314.232
318.245
388.127
318.242
314.225
276.835
266.992
267.625
278.06
314.596
321.338
390.075
321.335
314.588
278.052
267.617
268.277
279.465
315.612
325.484
392.717
325.48
315.604
279.457
268.269
268.942
281.482
317.351
330.67
395.811
330.666
317.343
281.474
268.934
268.875
282.159
322.391
341.77
402.854
341.766
322.383
282.151
268.868
270.19
289.458
330.871
350.648
406.787
350.644
330.864
289.45
270.183
266.411
258.307
395.183
451.775
486.088
451.77
395.175
258.299
266.404
286.484
371.38
837.106
518.448
584.173
518.446
837.097
371.373
286.477
326.828
415.839
415.832
326.82
289.816
414.342
274.946
283.145
365.709
283.142
274.942
414.334
289.809
220.25
444.88
365.685
382.593
471.017
382.588
365.678
444.871
220.245
325.942
348.305
433.193
348.3
325.935
327.961
344.184
427.694
344.18
327.954
333.549
345.874
427.281
345.869
333.542
337.775
348.353
427.774
348.348
337.768
341.085
350.937
428.602
350.932
341.079
343.989
353.521
429.588
353.516
343.982
346.777
356.129
430.678
356.124
346.77
349.586
358.796
431.863
358.791
349.579
352.415
361.489
433.107
361.484
352.408
355.483
364.398
434.521
364.393
355.476
358.025
366.806
435.687
366.801
358.019
363.057
371.55
438.164
371.545
363.05
245.903
256.927
301.632
307.747
278.545
307.745
301.63
256.927
245.903
271.3
301.358
346.488
327.934
282.203
327.932
346.486
301.357
271.299
265.38
303.576
356.63
336.222
283.12
336.22
356.628
303.575
265.38
265.353
298.991
353.357
336.79
282.631
336.788
353.355
298.99
265.353
267.073
295.633
348.093
334.776
282.134
334.775
348.091
295.632
267.072
268.778
293.92
343.758
332.407
282.132
332.405
343.755
293.918
268.777
270.205
293.201
340.537
330.323
282.64
330.322
340.534
293.198
270.203
271.406
292.987
338.096
328.602
283.532
328.601
338.092
292.984
271.404
272.454
293.014
336.137
327.182
284.678
327.18
336.133
293.01
272.451
273.396
293.149
334.47
325.992
285.993
325.99
334.465
293.146
273.393
274.284
293.337
332.984
324.983
287.427
324.981
332.979
293.333
274.28
275.128
293.532
331.601
324.119
288.955
324.117
331.596
293.527
275.124
276.251
293.756
330.238
323.37
290.571
323.368
330.233
293.751
276.246
276.883
293.585
328.66
322.683
292.273
322.681
328.655
293.58
276.878
280.685
293.049
326.522
322.083
294.226
322.081
326.516
293.043
280.68
266.645
284.862
322.486
321.678
296.854
321.675
322.48
284.857
266.64
244.392
269.255
318.55
323.674
303.297
323.672
318.544
269.249
244.387
236.517
262.666
315.825
326.647
311.998
326.644
315.818
262.66
236.514
232.86
261.117
313.08
327.8
317.971
327.797
313.074
261.111
232.856
237.256
264.029
312.04
328.354
322.342
328.35
312.033
264.024
237.253
242.872
268.452
312.466
329.21
326.337
329.207
312.459
268.446
242.869
247.99
273.101
313.808
330.65
330.531
330.647
313.801
273.094
247.986
252.6
277.7
315.756
332.736
335.155
332.733
315.749
277.693
252.596
256.941
282.31
318.243
335.536
340.353
335.532
318.236
282.303
256.937
261.205
287.096
321.336
339.187
346.299
339.183
321.329
287.089
261.2
265.472
292.272
325.482
344.127
353.405
344.123
325.474
292.266
265.468
269.905
298.131
330.668
350.808
362.184
350.804
330.66
298.124
269.901
273.736
304.448
341.767
362.736
375.369
362.732
341.76
304.441
273.732
279.272
311.067
350.646
377.68
391.77
377.675
350.639
311.06
279.267
276.724
297.602
451.773
442.173
441.069
442.168
451.764
297.596
276.72
307.286
338.804
518.446
289.899
319.99
289.898
518.44
338.798
307.282
357.585
366.254
366.249
357.58
313.731
436.493
283.143
220.71
269.196
220.708
283.14
436.486
313.726
139.001
442.439
382.592
352.441
392.676
352.438
382.585
442.43
138.998
348.304
339.734
385.719
339.731
348.297
344.183
330.647
375.912
330.644
344.176
345.873
328.727
372.177
328.723
345.866
348.352
329.792
371.812
329.788
348.345
350.936
332.026
372.977
332.022
350.929
353.52
334.68
374.762
334.676
353.513
356.128
337.501
376.803
337.497
356.121
358.795
340.423
378.979
340.419
358.788
361.488
343.374
381.208
343.37
361.481
364.397
346.538
383.624
346.534
364.39
366.805
349.157
385.629
349.153
366.798
371.55
354.261
389.58
354.257
371.543
310.212
260.344
261.699
278.544
276.913
278.541
261.698
260.343
310.212
334.604
275.693
271.652
282.202
276.726
282.199
271.65
275.692
334.603
320.367
278.501
276.261
283.119
274.645
283.117
276.259
278.5
320.366
307.642
277.902
277.897
282.63
272.232
282.628
277.895
277.9
307.64
300.246
277.325
278.84
282.133
270.56
282.131
278.838
277.323
300.243
296.174
277.287
279.893
282.13
269.892
282.128
279.891
277.285
296.172
293.795
277.639
281.172
282.639
270.101
282.636
281.17
277.636
293.793
292.25
278.201
282.604
283.53
270.969
283.527
282.601
278.199
292.247
291.135
278.865
284.101
284.677
272.311
284.674
284.098
278.862
291.131
290.259
279.571
285.603
285.992
274
285.989
285.6
279.567
290.255
289.629
280.325
287.08
287.425
275.964
287.423
287.077
280.322
289.625
288.996
281.046
288.502
288.953
278.163
288.951
288.498
281.042
288.992
290.066
282.291
289.918
290.569
280.58
290.566
289.914
282.287
290.061
287.364
282.054
291
292.271
283.241
292.268
290.995
282.05
287.359
318.822
290.554
292.869
294.224
286.37
294.221
292.864
290.549
318.817
263.098
259.545
289.986
296.852
290.57
296.849
289.981
259.54
263.092
416.058
357.18
304.06
303.295
298.234
303.292
304.054
357.175
416.056
487.725
531.605
352.6
311.996
307.139
311.992
352.594
531.6
487.724
463.281
542.151
373.116
317.969
313.758
317.965
373.11
542.146
463.281
474.772
536.429
380.639
322.34
318.927
322.336
380.633
536.425
474.772
478.272
528.45
383.635
326.335
323.801
326.331
383.629
528.445
478.272
475.967
520.083
385.238
330.528
328.973
330.524
385.232
520.078
475.967
471.444
511.952
386.57
335.153
334.683
335.149
386.564
511.947
471.443
466.34
504.246
388.123
340.351
341.063
340.347
388.117
504.241
466.338
461.227
497.054
390.071
346.297
348.305
346.292
390.065
497.049
461.225
456.192
490.25
392.714
353.403
356.838
353.399
392.708
490.245
456.191
451.28
483.492
395.809
362.182
367.33
362.178
395.802
483.486
451.279
445.269
474.628
402.851
375.368
381.992
375.363
402.844
474.623
445.267
440.968
461.583
406.785
391.769
400.727
391.764
406.778
461.578
440.966
426.132
408.505
486.086
441.069
436.429
441.065
486.079
408.5
426.131
457.841
425.468
584.171
319.99
361.866
319.989
584.164
425.463
457.839
520.079
439.381
439.376
520.077
458.182
546.613
365.71
269.195
251.395
269.192
365.706
546.608
458.18
196.857
552.689
471.02
392.676
332.931
392.672
471.016
552.685
196.857
433.195
385.72
339.637
385.717
433.192
427.697
375.913
335.549
375.911
427.694
427.284
372.178
333.875
372.176
427.28
427.776
371.813
334.711
371.811
427.773
428.605
372.978
336.933
372.976
428.601
429.59
374.763
339.766
374.761
429.587
430.681
376.804
342.847
376.802
430.677
431.865
378.98
346.045
378.979
431.862
433.11
381.209
349.26
381.208
433.106
434.523
383.625
352.659
383.623
434.52
435.69
385.63
355.481
385.629
435.686
438.167
389.581
360.853
389.579
438.164
245.904
256.927
301.631
307.744
278.541
307.743
301.63
256.927
245.903
271.3
301.358
346.487
327.931
282.199
327.931
346.487
301.357
271.299
265.38
303.576
356.629
336.219
283.116
336.219
356.628
303.575
265.38
265.353
298.991
353.356
336.787
282.627
336.787
353.355
298.99
265.352
267.072
295.633
348.093
334.773
282.13
334.773
348.091
295.632
267.071
268.778
293.919
343.757
332.404
282.127
332.404
343.755
293.918
268.777
270.204
293.2
340.536
330.32
282.636
330.32
340.534
293.198
270.203
271.405
292.986
338.095
328.599
283.527
328.599
338.093
292.984
271.404
272.452
293.012
336.135
327.179
284.674
327.178
336.133
293.01
272.45
273.394
293.148
334.468
325.989
285.989
325.988
334.465
293.145
273.392
274.282
293.335
332.982
324.979
287.422
324.978
332.979
293.332
274.28
275.126
293.53
331.599
324.115
288.95
324.114
331.596
293.527
275.123
276.248
293.754
330.236
323.366
290.565
323.365
330.232
293.75
276.245
276.881
293.583
328.658
322.68
292.268
322.678
328.654
293.579
276.877
280.682
293.046
326.519
322.079
294.22
322.078
326.515
293.042
280.679
266.643
284.86
322.483
321.674
296.848
321.672
322.479
284.856
266.639
244.389
269.252
318.547
323.67
303.291
323.668
318.543
269.249
244.386
236.515
262.663
315.822
326.642
311.992
326.64
315.818
262.66
236.513
232.857
261.114
313.077
327.795
317.964
327.794
313.073
261.11
232.856
237.254
264.026
312.037
328.349
322.335
328.347
312.032
264.023
237.253
242.87
268.449
312.463
329.205
326.33
329.203
312.458
268.445
242.869
247.988
273.098
313.805
330.645
330.523
330.643
313.8
273.094
247.986
252.598
277.697
315.753
332.731
335.148
332.729
315.748
277.694
252.597
256.94
282.308
318.24
335.531
340.346
335.529
318.235
282.304
256.938
261.204
287.095
321.333
339.182
346.292
339.179
321.328
287.091
261.202
265.472
292.272
325.479
344.122
353.398
344.119
325.474
292.268
265.47
269.906
298.132
330.665
350.803
362.177
350.8
330.661
298.128
269.905
273.738
304.45
341.766
362.731
375.363
362.729
341.761
304.446
273.736
279.275
311.069
350.645
377.675
391.764
377.673
350.64
311.065
279.273
276.728
297.604
451.771
442.169
441.064
442.166
451.766
297.601
276.726
307.291
338.806
518.445
289.898
319.989
289.897
518.44
338.802
307.288
357.59
366.256
366.252
357.588
313.735
436.495
283.145
220.71
269.195
220.709
283.143
436.491
313.733
139.003
442.44
382.592
352.442
392.675
352.44
382.589
442.435
139.001
348.304
339.735
385.719
339.733
348.3
344.183
330.648
375.913
330.646
344.179
345.873
328.727
372.178
328.725
345.869
348.351
329.792
371.813
329.79
348.348
350.936
332.026
372.977
332.023
350.932
353.52
334.68
374.763
334.678
353.517
356.127
337.501
376.804
337.499
356.124
358.795
340.423
378.98
340.421
358.792
361.487
343.374
381.209
343.372
361.484
364.397
346.538
383.625
346.536
364.393
366.804
349.157
385.63
349.155
366.801
371.549
354.261
389.581
354.259
371.546
303.984
314.01
345.349
301.63
261.697
301.629
345.349
314.01
303.984
341.93
414.987
447.383
346.486
271.649
346.486
447.383
414.987
341.93
295.17
359.279
428.774
356.627
276.258
356.628
428.773
359.279
295.17
289.818
325.207
399.305
353.354
277.894
353.354
399.304
325.207
289.818
289.108
310.097
379.642
348.09
278.837
348.09
379.641
310.097
289.108
288.746
303.861
368.13
343.754
279.89
343.754
368.129
303.861
288.745
288.383
301.287
361.212
340.533
281.169
340.533
361.211
301.286
288.383
288.016
300.181
356.639
338.092
282.6
338.092
356.637
300.18
288.016
287.655
299.667
353.246
336.132
284.097
336.132
353.245
299.665
287.654
287.308
299.395
350.468
334.464
285.599
334.464
350.466
299.394
287.307
286.986
299.218
348.023
332.978
287.076
332.978
348.021
299.217
286.985
286.686
299.065
345.75
331.595
288.497
331.595
345.748
299.063
286.685
286.383
298.836
343.504
330.232
289.913
330.232
343.501
298.834
286.381
285.921
298.33
341.024
328.653
290.995
328.653
341.022
298.328
285.919
285.076
297.091
337.887
326.515
292.863
326.515
337.884
297.089
285.074
281.918
294.133
333.431
322.479
289.98
322.479
333.428
294.131
281.916
281.655
290.375
329.37
318.542
304.053
318.542
329.367
290.372
281.652
278.823
284.417
325.534
315.817
352.593
315.817
325.531
284.414
278.82
272.022
278.955
321.273
313.073
373.109
313.072
321.27
278.952
272.019
268.149
276.102
318.048
312.032
380.632
312.031
318.045
276.099
268.146
266.65
275.175
316.036
312.458
383.628
312.457
316.032
275.171
266.646
266.321
275.271
314.889
313.8
385.231
313.8
314.885
275.268
266.318
266.524
275.896
314.321
315.749
386.563
315.747
314.318
275.892
266.521
266.994
276.836
314.223
318.236
388.116
318.234
314.22
276.833
266.991
267.619
278.053
314.587
321.329
390.064
321.327
314.584
278.049
267.616
268.271
279.458
315.603
325.475
392.707
325.473
315.6
279.454
268.268
268.936
281.476
317.342
330.661
395.801
330.66
317.339
281.472
268.933
268.87
282.153
322.383
341.762
402.844
341.76
322.38
282.149
268.867
270.185
289.452
330.864
350.641
406.778
350.639
330.861
289.448
270.182
266.407
258.302
395.177
451.767
486.079
451.765
395.173
258.299
266.404
286.48
371.375
837.099
518.441
584.166
518.44
837.095
371.372
286.477
326.824
415.835
415.832
326.821
289.812
414.338
274.943
283.143
365.707
283.142
274.942
414.335
289.809
220.246
444.875
365.681
382.589
471.017
382.588
365.678
444.871
220.244
325.938
348.301
433.193
348.3
325.935
327.957
344.18
427.695
344.179
327.954
333.545
345.87
427.282
345.869
333.542
337.771
348.349
427.774
348.347
337.767
341.082
350.933
428.603
350.932
341.078
343.985
353.517
429.588
353.516
343.982
346.773
356.125
430.679
356.124
346.769
349.583
358.792
431.863
358.791
349.579
352.411
361.485
433.108
361.484
352.407
355.479
364.394
434.521
364.393
355.476
358.022
366.802
435.688
366.801
358.018
363.053
371.547
438.165
371.546
363.05
271.498
253.688
314.01
256.927
260.342
256.927
314.01
253.688
271.498
319.569
349.158
414.987
301.357
275.691
301.357
414.987
349.158
319.569
262.167
288.317
359.279
303.575
278.499
303.575
359.278
288.317
262.167
254.16
261.656
325.208
298.989
277.899
298.989
325.207
261.656
254.16
256.915
254.998
310.098
295.631
277.323
295.631
310.097
254.997
256.915
260.479
255.062
303.861
293.917
277.284
293.917
303.86
255.062
260.478
263.045
256.778
301.287
293.198
277.636
293.198
301.286
256.777
263.044
264.71
258.67
300.181
292.983
278.198
292.983
300.179
258.669
264.709
265.812
260.416
299.667
293.009
278.861
293.009
299.665
260.416
265.811
266.596
261.989
299.395
293.145
279.567
293.145
299.394
261.988
266.595
267.199
263.414
299.218
293.332
280.321
293.332
299.216
263.413
267.198
267.685
264.692
299.065
293.526
281.042
293.526
299.063
264.691
267.683
268.082
265.84
298.836
293.75
282.286
293.75
298.834
265.839
268.081
268.366
266.795
298.33
293.579
282.049
293.579
298.328
266.793
268.365
268.637
267.502
297.09
293.042
290.548
293.042
297.089
267.5
268.635
268.927
267.938
294.132
284.855
259.539
284.855
294.13
267.936
268.925
273.137
270.073
290.374
269.248
357.174
269.248
290.372
270.071
273.136
278.579
272.514
284.416
262.66
531.599
262.659
284.414
272.512
278.578
280.262
273.046
278.953
261.111
542.146
261.11
278.952
273.044
280.26
280.268
272.924
276.1
264.024
536.425
264.022
276.099
272.922
280.265
279.95
272.906
275.173
268.446
528.445
268.444
275.171
272.903
279.948
279.72
273.134
275.27
273.095
520.078
273.093
275.268
273.132
279.718
279.645
273.573
275.894
277.694
511.947
277.692
275.892
273.571
279.643
279.706
274.175
276.835
282.305
504.24
282.303
276.833
274.172
279.704
279.872
274.92
278.051
287.092
497.048
287.089
278.05
274.917
279.869
280.082
275.727
279.456
292.268
490.245
292.266
279.455
275.724
280.079
280.267
276.68
281.474
298.128
483.487
298.126
281.473
276.678
280.265
280.232
276.712
282.151
304.445
474.624
304.443
282.15
276.71
280.229
280.294
277.907
289.451
311.064
461.578
311.063
289.449
277.905
280.292
280.57
266.913
258.301
297.6
408.501
297.599
258.299
266.911
280.567
289.126
273.239
371.375
338.802
425.464
338.801
371.373
273.236
289.123
306.23
284.989
415.834
366.252
439.377
366.251
415.832
284.987
306.228
316.397
301.177
414.337
436.491
546.609
436.49
414.335
301.175
316.394
367.886
414.558
444.875
442.436
552.687
442.434
444.872
414.556
367.884
277.841
271.498
303.984
245.903
310.211
245.903
303.984
271.498
277.841
314.604
319.569
341.93
271.299
334.603
271.299
341.93
319.569
314.604
255.96
262.167
295.17
265.379
320.365
265.379
295.17
262.167
255.96
258.452
254.16
289.818
265.352
307.64
265.352
289.818
254.16
258.452
267.583
256.915
289.108
267.071
300.243
267.071
289.108
256.915
267.583
273.721
260.479
288.745
268.776
296.171
268.776
288.745
260.478
273.72
276.883
263.045
288.383
270.203
293.792
270.203
288.383
263.044
276.882
278.271
264.71
288.016
271.403
292.246
271.403
288.015
264.709
278.27
278.74
265.812
287.655
272.45
291.131
272.45
287.654
265.811
278.739
278.758
266.596
287.308
273.392
290.255
273.392
287.307
266.595
278.757
278.557
267.199
286.986
274.28
289.624
274.28
286.985
267.198
278.556
278.237
267.685
286.686
275.123
288.992
275.123
286.685
267.683
278.236
277.823
268.082
286.382
276.245
290.061
276.245
286.381
268.081
277.821
277.324
268.366
285.92
276.877
287.359
276.877
285.919
268.365
277.322
276.875
268.637
285.075
280.679
318.817
280.678
285.073
268.635
276.873
276.863
268.926
281.917
266.639
263.092
266.639
281.916
268.925
276.861
278.943
273.137
281.653
244.387
416.056
244.386
281.652
273.136
278.941
282.082
278.579
278.821
236.514
487.724
236.513
278.82
278.577
282.08
283.697
280.262
272.02
232.856
463.28
232.855
272.019
280.26
283.694
284.125
280.267
268.147
237.253
474.771
237.252
268.146
280.265
284.123
284.105
279.949
266.648
242.869
478.272
242.868
266.647
279.947
284.103
284.024
279.72
266.319
247.987
475.967
247.985
266.318
279.718
284.021
284.009
279.644
266.522
252.597
471.443
252.596
266.521
279.642
284.007
284.084
279.706
266.992
256.938
466.338
256.937
266.991
279.704
284.082
284.233
279.871
267.617
261.203
461.226
261.201
267.616
279.869
284.231
284.426
280.081
268.269
265.47
456.191
265.469
268.268
280.079
284.424
284.64
280.267
268.934
269.904
451.279
269.903
268.933
280.265
284.638
284.929
280.231
268.869
273.735
445.268
273.734
268.867
280.229
284.927
285.764
280.294
270.184
279.271
440.968
279.27
270.183
280.292
285.762
288.414
280.569
266.405
276.724
426.132
276.723
266.404
280.567
288.412
297.305
289.125
286.478
307.287
457.841
307.286
286.477
289.123
297.303
312.023
306.23
326.822
357.586
520.079
357.585
326.821
306.228
312.021
324.122
316.396
289.81
313.731
458.182
313.73
289.809
316.395
324.12
364.52
367.887
220.246
139.001
196.858
139.001
220.245
367.885
364.519
)
;

boundaryField
{
    injectionXMinus
    {
        type            fixedValue;
        value           uniform 400;
    }
    injectionXPlus
    {
        type            fixedValue;
        value           uniform 400;
    }
    injectionYMinus
    {
        type            fixedValue;
        value           uniform 400;
    }
    injectionYPlus
    {
        type            fixedValue;
        value           uniform 400;
    }
    inletXMinus
    {
        type            fixedValue;
        value           uniform 293.15;
    }
    inletXPlus
    {
        type            fixedValue;
        value           uniform 293.15;
    }
    inletYMinus
    {
        type            fixedValue;
        value           uniform 293.15;
    }
    inletYPlus
    {
        type            fixedValue;
        value           uniform 293.15;
    }
    outlet
    {
        type            zeroGradient;
    }
    valve
    {
        type            zeroGradient;
    }
    walls
    {
        type            zeroGradient;
    }
}


// ************************************************************************* //
