/*--------------------------------*- C++ -*----------------------------------*\
  =========                 |
  \\      /  F ield         | OpenFOAM: The Open Source CFD Toolbox
   \\    /   O peration     | Website:  https://openfoam.org
    \\  /    A nd           | Version:  6
     \\/     M anipulation  |
\*---------------------------------------------------------------------------*/
FoamFile
{
    version     2.0;
    format      ascii;
    class       volScalarField;
    location    "0";
    object      p;
}
// * * * * * * * * * * * * * * * * * * * * * * * * * * * * * * * * * * * * * //

dimensions      [0 2 -2 0 0 0 0];

internalField   nonuniform List<scalar> 
3029
(
8302.72
8301.97
8299.68
8282.49
8274.48
8282.49
8299.68
8301.97
8302.72
8303.36
8300.21
8295.95
8272.77
8264.53
8272.77
8295.95
8300.21
8303.36
8268.59
8265.15
8259.37
8247.84
8243.75
8247.84
8259.37
8265.15
8268.59
8230.85
8228.57
8224.86
8220.27
8218.43
8220.27
8224.86
8228.57
8230.85
8197.66
8196.39
8194.37
8192.31
8191.47
8192.31
8194.37
8196.39
8197.66
8167.01
8166.35
8165.3
8164.33
8163.93
8164.33
8165.3
8166.35
8167.01
8137.69
8137.35
8136.83
8136.36
8136.17
8136.36
8136.83
8137.35
8137.69
8109.03
8108.88
8108.63
8108.42
8108.33
8108.42
8108.63
8108.88
8109.03
8080.69
8080.64
8080.57
8080.51
8080.48
8080.51
8080.57
8080.64
8080.69
8052.45
8052.49
8052.57
8052.64
8052.67
8052.64
8052.57
8052.5
8052.45
8024.13
8024.3
8024.59
8024.88
8025.01
8024.88
8024.59
8024.3
8024.13
7995.47
7995.88
7996.62
7997.39
7997.76
7997.39
7996.62
7995.88
7995.47
7965.98
7966.9
7968.62
7970.59
7971.63
7970.59
7968.62
7966.9
7965.98
7934.67
7936.59
7940.5
7945.55
7948.71
7945.55
7940.5
7936.59
7934.67
7899.5
7903.28
7911.79
7924.71
7935.58
7924.71
7911.79
7903.28
7899.5
7856.76
7863.44
7880.4
7912.45
7954.84
7912.45
7880.4
7863.44
7856.76
7800.67
7810.41
7838.51
7907.17
8075.61
7907.17
7838.51
7810.41
7800.67
7725.08
7735.23
7765.09
7840.73
8040.66
7840.73
7765.09
7735.23
7725.08
7629.2
7636.53
7655.77
7694.31
7754.37
7694.31
7655.77
7636.53
7629.2
7518.67
7522.96
7532.88
7548.67
7563.37
7548.67
7532.88
7522.96
7518.67
7399.59
7401.83
7406.47
7412.68
7416.84
7412.68
7406.47
7401.83
7399.59
7276.05
7277.17
7279.29
7281.78
7283.12
7281.78
7279.29
7277.17
7276.05
7150.29
7150.88
7151.92
7153.01
7153.52
7153.01
7151.92
7150.88
7150.29
7023.34
7023.75
7024.42
7025.05
7025.32
7025.05
7024.42
7023.75
7023.34
6895.58
6896.02
6896.71
6897.32
6897.57
6897.32
6896.71
6896.02
6895.58
6766.95
6767.6
6768.6
6769.47
6769.82
6769.47
6768.6
6767.6
6766.95
6637.01
6638.06
6639.69
6641.1
6641.65
6641.1
6639.69
6638.06
6637.01
6504.94
6506.61
6509.2
6511.4
6512.25
6511.4
6509.2
6506.61
6504.94
6369.54
6371.83
6375.51
6378.52
6379.63
6378.52
6375.51
6371.83
6369.54
6229.58
6231.67
6235.48
6238.25
6239.19
6238.25
6235.48
6231.67
6229.58
6085.45
6084.22
6083.73
6082.28
6081.5
6082.28
6083.73
6084.22
6085.45
5943.84
5932.41
5915.35
5900.8
5895.24
5900.8
5915.35
5932.4
5943.84
5825.15
5799.79
5759.1
5727.28
5715.72
5727.28
5759.1
5799.78
5825.15
5757.2
5723.18
5668.66
5627.47
5612.77
5627.47
5668.65
5723.18
5757.2
8301.97
8299.6
8289.18
8273.71
8268.37
8273.71
8289.18
8299.6
8301.97
8300.21
8291.32
8279.87
8263.95
8258.87
8263.95
8279.87
8291.32
8300.21
8265.15
8258.18
8250.91
8243.05
8240.11
8243.05
8250.91
8258.18
8265.15
8228.57
8225.62
8221.69
8217.89
8216.39
8217.89
8221.69
8225.62
8228.57
8196.39
8195.01
8192.99
8191.13
8190.38
8191.13
8192.99
8195.01
8196.39
8166.35
8165.67
8164.64
8163.73
8163.36
8163.73
8164.65
8165.67
8166.35
8137.35
8137.02
8136.51
8136.05
8135.87
8136.05
8136.51
8137.02
8137.35
8108.88
8108.72
8108.47
8108.26
8108.18
8108.26
8108.47
8108.72
8108.88
8080.64
8080.58
8080.5
8080.42
8080.39
8080.42
8080.5
8080.58
8080.64
8052.49
8052.51
8052.54
8052.58
8052.59
8052.58
8052.54
8052.51
8052.5
8024.3
8024.4
8024.58
8024.78
8024.87
8024.78
8024.59
8024.4
8024.3
7995.88
7996.13
7996.59
7997.12
7997.37
7997.12
7996.6
7996.13
7995.88
7966.9
7967.41
7968.48
7969.79
7970.49
7969.79
7968.48
7967.41
7966.9
7936.59
7937.59
7939.94
7943.21
7945.26
7943.22
7939.94
7937.59
7936.59
7903.28
7905.09
7910.03
7918.16
7924.64
7918.16
7910.03
7905.09
7903.28
7863.44
7866.31
7875.85
7895.1
7917.36
7895.1
7875.85
7866.32
7863.44
7810.41
7814.21
7829.54
7868.67
7950.18
7868.67
7829.55
7814.21
7810.41
7735.23
7739.04
7755.05
7796.57
7884.06
7796.57
7755.05
7739.05
7735.23
7636.53
7639.5
7650.01
7671.92
7698.37
7671.92
7650.01
7639.5
7636.53
7522.96
7524.89
7530.51
7540.07
7548.05
7540.07
7530.51
7524.89
7522.96
7401.83
7402.95
7405.69
7409.63
7412.18
7409.63
7405.69
7402.95
7401.83
7277.17
7277.8
7279.13
7280.77
7281.66
7280.77
7279.13
7277.8
7277.17
7150.88
7151.27
7151.99
7152.77
7153.14
7152.77
7151.99
7151.27
7150.88
7023.75
7024.09
7024.65
7025.19
7025.41
7025.19
7024.65
7024.09
7023.75
6896.02
6896.47
6897.17
6897.8
6898.05
6897.8
6897.17
6896.47
6896.02
6767.6
6768.35
6769.51
6770.52
6770.92
6770.52
6769.51
6768.35
6767.6
6638.06
6639.41
6641.5
6643.29
6643.98
6643.29
6641.5
6639.41
6638.06
6506.61
6509
6512.77
6515.93
6517.13
6515.93
6512.77
6509
6506.61
6371.83
6375.82
6382.48
6387.75
6389.67
6387.75
6382.48
6375.82
6371.83
6231.67
6237.26
6248.25
6255.8
6258.31
6255.8
6248.25
6237.26
6231.67
6084.22
6087.89
6101.42
6107.29
6108.66
6107.29
6101.42
6087.89
6084.22
5932.41
5918.88
5900.75
5883.87
5877.47
5883.87
5900.75
5918.88
5932.4
5799.79
5759.01
5684.27
5633.18
5615.89
5633.18
5684.27
5759.01
5799.78
5723.18
5666.88
5564.38
5500.83
5480.11
5500.83
5564.38
5666.88
5723.18
8299.68
8289.18
8274.43
8264.53
8261.07
8264.53
8274.43
8289.18
8299.68
8295.95
8279.87
8264.73
8255.45
8252.31
8255.45
8264.73
8279.87
8295.95
8259.37
8250.91
8243.28
8237.61
8235.55
8237.61
8243.28
8250.91
8259.37
8224.86
8221.69
8217.89
8214.8
8213.63
8214.8
8217.89
8221.69
8224.86
8194.37
8192.99
8191.08
8189.46
8188.83
8189.46
8191.08
8192.99
8194.37
8165.3
8164.64
8163.68
8162.84
8162.52
8162.84
8163.68
8164.65
8165.31
8136.83
8136.51
8136.02
8135.59
8135.43
8135.59
8136.02
8136.51
8136.83
8108.63
8108.47
8108.23
8108.02
8107.94
8108.02
8108.23
8108.48
8108.63
8080.57
8080.5
8080.39
8080.29
8080.26
8080.29
8080.39
8080.5
8080.57
8052.57
8052.54
8052.51
8052.49
8052.48
8052.49
8052.51
8052.54
8052.57
8024.59
8024.58
8024.6
8024.65
8024.67
8024.65
8024.6
8024.59
8024.59
7996.62
7996.6
7996.65
7996.78
7996.87
7996.78
7996.65
7996.6
7996.62
7968.62
7968.48
7968.52
7968.84
7969.08
7968.84
7968.52
7968.48
7968.62
7940.5
7939.94
7939.82
7940.59
7941.29
7940.59
7939.82
7939.94
7940.5
7911.79
7910.03
7909.34
7911.22
7913.34
7911.23
7909.34
7910.03
7911.79
7880.4
7875.85
7873.71
7878.11
7884.42
7878.11
7873.71
7875.85
7880.4
7838.51
7829.54
7824.96
7833.47
7849.69
7833.47
7824.96
7829.55
7838.51
7765.09
7755.05
7750.04
7758.93
7776.08
7758.93
7750.04
7755.05
7765.09
7655.77
7650.01
7647.31
7652.17
7659.33
7652.17
7647.31
7650.01
7655.77
7532.88
7530.51
7529.51
7531.65
7534.14
7531.65
7529.51
7530.51
7532.88
7406.47
7405.69
7405.48
7406.38
7407.23
7406.38
7405.48
7405.69
7406.47
7279.29
7279.13
7279.21
7279.65
7279.96
7279.65
7279.21
7279.13
7279.29
7151.92
7151.99
7152.22
7152.54
7152.7
7152.54
7152.22
7151.99
7151.92
7024.42
7024.65
7025.05
7025.43
7025.6
7025.43
7025.05
7024.65
7024.42
6896.71
6897.17
6897.9
6898.55
6898.8
6898.55
6897.9
6897.17
6896.7
6768.6
6769.51
6770.91
6772.14
6772.61
6772.14
6770.91
6769.51
6768.59
6639.69
6641.5
6644.3
6646.69
6647.61
6646.69
6644.3
6641.5
6639.69
6509.2
6512.77
6518.5
6523.22
6524.99
6523.22
6518.5
6512.77
6509.2
6375.51
6382.48
6394.74
6404.03
6407.32
6404.03
6394.74
6382.48
6375.51
6235.48
6248.25
6276.92
6294.77
6300.49
6294.77
6276.92
6248.25
6235.48
6083.73
6101.42
6180.68
6211.81
6220.24
6211.81
6180.68
6101.42
6083.73
5915.35
5900.75
5900.75
5915.35
5759.1
5684.27
5488.89
5386.88
5355.62
5386.88
5488.89
5684.27
5759.1
5668.65
5564.38
5301.09
5199.09
5170.28
5199.09
5301.09
5564.38
5668.65
4791.2
4758.84
4745.26
4758.84
4791.2
4347.23
4336.77
4331.5
4336.77
4347.23
3924.59
3921.13
3919.23
3921.13
3924.59
3508.66
3507.52
3506.85
3507.52
3508.66
3094.97
3094.59
3094.36
3094.59
3094.97
2682.01
2681.88
2681.81
2681.88
2682.01
2269.3
2269.26
2269.23
2269.26
2269.3
1856.67
1856.66
1856.65
1856.66
1856.67
1444.07
1444.06
1444.06
1444.06
1444.07
1031.47
1031.47
1031.47
1031.47
1031.47
618.884
618.883
618.883
618.883
618.884
206.295
206.294
206.294
206.294
206.295
8282.49
8273.71
8264.53
8257.97
8255.63
8257.97
8264.53
8273.71
8282.49
8272.77
8263.95
8255.45
8249.56
8247.47
8249.56
8255.45
8263.96
8272.77
8247.84
8243.05
8237.61
8233.53
8232.04
8233.53
8237.61
8243.05
8247.84
8220.27
8217.89
8214.8
8212.34
8211.41
8212.34
8214.8
8217.89
8220.27
8192.31
8191.13
8189.46
8188.07
8187.53
8188.07
8189.46
8191.13
8192.31
8164.33
8163.73
8162.84
8162.09
8161.8
8162.09
8162.84
8163.73
8164.33
8136.36
8136.05
8135.59
8135.19
8135.04
8135.19
8135.59
8136.05
8136.36
8108.42
8108.26
8108.02
8107.81
8107.73
8107.81
8108.02
8108.26
8108.42
8080.51
8080.42
8080.29
8080.18
8080.14
8080.18
8080.29
8080.42
8080.51
8052.64
8052.58
8052.49
8052.41
8052.39
8052.41
8052.49
8052.58
8052.64
8024.88
8024.78
8024.65
8024.56
8024.53
8024.56
8024.65
8024.78
8024.88
7997.39
7997.12
7996.78
7996.57
7996.51
7996.57
7996.78
7997.12
7997.39
7970.59
7969.79
7968.84
7968.29
7968.15
7968.29
7968.84
7969.79
7970.59
7945.55
7943.21
7940.59
7939.16
7938.86
7939.16
7940.59
7943.22
7945.55
7924.71
7918.16
7911.23
7907.8
7907.22
7907.8
7911.23
7918.16
7924.71
7912.45
7895.1
7878.11
7870.72
7869.93
7870.72
7878.11
7895.1
7912.45
7907.17
7868.67
7833.47
7820.45
7819.9
7820.45
7833.47
7868.67
7907.17
7840.73
7796.57
7758.93
7745.26
7744.7
7745.26
7758.93
7796.57
7840.73
7694.31
7671.92
7652.17
7643.87
7643
7643.87
7652.17
7671.92
7694.31
7548.67
7540.07
7531.65
7527.63
7526.97
7527.63
7531.65
7540.07
7548.67
7412.68
7409.63
7406.38
7404.67
7404.32
7404.67
7406.38
7409.63
7412.68
7281.78
7280.77
7279.65
7279.03
7278.89
7279.03
7279.65
7280.77
7281.78
7153.01
7152.77
7152.53
7152.44
7152.44
7152.44
7152.53
7152.77
7153.01
7025.05
7025.19
7025.43
7025.68
7025.79
7025.68
7025.43
7025.19
7025.05
6897.32
6897.8
6898.55
6899.21
6899.47
6899.21
6898.55
6897.8
6897.32
6769.47
6770.52
6772.14
6773.54
6774.08
6773.54
6772.14
6770.52
6769.47
6641.1
6643.29
6646.69
6649.58
6650.7
6649.58
6646.69
6643.29
6641.1
6511.4
6515.93
6523.22
6529.21
6531.45
6529.21
6523.22
6515.93
6511.4
6378.52
6387.75
6404.03
6416.37
6420.74
6416.37
6404.03
6387.75
6378.52
6238.25
6255.8
6294.77
6319.47
6327.46
6319.47
6294.76
6255.8
6238.25
6082.28
6107.29
6211.81
6255.98
6268.34
6255.98
6211.81
6107.29
6082.28
5900.79
5883.87
5883.87
5900.79
5727.28
5633.18
5386.88
5257.32
5217.76
5257.32
5386.88
5633.18
5727.28
5627.47
5500.83
5199.09
5077.14
5042.62
5077.14
5199.09
5500.83
5627.47
4758.84
4722.45
4707.31
4722.45
4758.84
4336.77
4325.47
4319.82
4325.47
4336.77
3921.13
3917.49
3915.5
3917.49
3921.13
3507.52
3506.33
3505.65
3506.33
3507.52
3094.59
3094.2
3093.97
3094.2
3094.59
2681.88
2681.76
2681.68
2681.76
2681.88
2269.26
2269.21
2269.19
2269.21
2269.26
1856.66
1856.64
1856.63
1856.64
1856.66
1444.06
1444.06
1444.06
1444.06
1444.06
1031.47
1031.47
1031.47
1031.47
1031.47
618.883
618.883
618.883
618.883
618.883
206.294
206.294
206.294
206.294
206.294
8274.48
8268.37
8261.07
8255.63
8253.64
8255.63
8261.07
8268.37
8274.48
8264.53
8258.87
8252.31
8247.47
8245.71
8247.47
8252.31
8258.87
8264.53
8243.75
8240.11
8235.55
8232.04
8230.74
8232.04
8235.55
8240.11
8243.75
8218.43
8216.39
8213.63
8211.41
8210.57
8211.41
8213.63
8216.39
8218.43
8191.47
8190.38
8188.83
8187.53
8187.04
8187.53
8188.83
8190.38
8191.47
8163.93
8163.36
8162.52
8161.8
8161.52
8161.8
8162.52
8163.36
8163.93
8136.17
8135.87
8135.43
8135.04
8134.89
8135.04
8135.43
8135.87
8136.17
8108.33
8108.18
8107.94
8107.73
8107.65
8107.73
8107.94
8108.18
8108.33
8080.48
8080.39
8080.26
8080.14
8080.09
8080.14
8080.26
8080.39
8080.48
8052.68
8052.6
8052.48
8052.39
8052.35
8052.39
8052.48
8052.6
8052.68
8025.01
8024.87
8024.67
8024.53
8024.48
8024.53
8024.67
8024.87
8025.01
7997.76
7997.37
7996.87
7996.51
7996.4
7996.51
7996.87
7997.37
7997.76
7971.63
7970.49
7969.08
7968.15
7967.86
7968.15
7969.08
7970.49
7971.63
7948.71
7945.26
7941.29
7938.86
7938.15
7938.86
7941.29
7945.26
7948.71
7935.58
7924.64
7913.34
7907.22
7905.6
7907.22
7913.34
7924.65
7935.58
7954.84
7917.36
7884.42
7869.93
7866.58
7869.93
7884.42
7917.36
7954.84
8075.61
7950.18
7849.69
7819.9
7814.14
7819.9
7849.69
7950.18
8075.61
8040.66
7884.06
7776.08
7744.7
7738.71
7744.7
7776.08
7884.06
8040.66
7754.37
7698.37
7659.33
7643
7639.3
7643
7659.33
7698.37
7754.37
7563.37
7548.05
7534.14
7526.97
7525.11
7526.97
7534.14
7548.05
7563.37
7416.84
7412.18
7407.23
7404.32
7403.49
7404.32
7407.23
7412.18
7416.84
7283.12
7281.66
7279.96
7278.89
7278.57
7278.89
7279.96
7281.66
7283.12
7153.52
7153.14
7152.7
7152.44
7152.37
7152.44
7152.7
7153.14
7153.52
7025.32
7025.41
7025.59
7025.79
7025.88
7025.79
7025.59
7025.41
7025.32
6897.57
6898.05
6898.8
6899.47
6899.74
6899.47
6898.8
6898.05
6897.56
6769.82
6770.92
6772.61
6774.08
6774.66
6774.08
6772.61
6770.92
6769.82
6641.65
6643.98
6647.61
6650.7
6651.88
6650.7
6647.61
6643.98
6641.65
6512.25
6517.13
6524.99
6531.45
6533.86
6531.45
6524.99
6517.13
6512.25
6379.63
6389.67
6407.32
6420.74
6425.5
6420.74
6407.32
6389.67
6379.63
6239.19
6258.31
6300.49
6327.46
6336.21
6327.46
6300.49
6258.31
6239.19
6081.5
6108.66
6220.24
6268.34
6281.93
6268.34
6220.24
6108.66
6081.5
5895.24
5877.47
5877.47
5895.24
5715.72
5615.89
5355.62
5217.76
5175.57
5217.76
5355.62
5615.89
5715.72
5612.77
5480.11
5170.28
5042.62
5006.21
5042.62
5170.28
5480.11
5612.77
4745.26
4707.31
4691.5
4707.31
4745.26
4331.5
4319.82
4313.98
4319.82
4331.5
3919.23
3915.5
3913.46
3915.5
3919.23
3506.85
3505.65
3504.96
3505.65
3506.85
3094.36
3093.97
3093.73
3093.97
3094.36
2681.81
2681.68
2681.6
2681.68
2681.81
2269.23
2269.19
2269.16
2269.19
2269.23
1856.65
1856.63
1856.62
1856.63
1856.65
1444.06
1444.06
1444.05
1444.06
1444.06
1031.47
1031.47
1031.47
1031.47
1031.47
618.883
618.883
618.882
618.883
618.883
206.294
206.294
206.294
206.294
206.294
8282.49
8273.71
8264.53
8257.97
8255.63
8257.97
8264.53
8273.71
8282.49
8272.77
8263.95
8255.45
8249.56
8247.47
8249.56
8255.45
8263.96
8272.77
8247.84
8243.05
8237.61
8233.53
8232.04
8233.53
8237.61
8243.05
8247.84
8220.27
8217.89
8214.8
8212.34
8211.41
8212.34
8214.8
8217.89
8220.27
8192.31
8191.13
8189.46
8188.07
8187.53
8188.07
8189.46
8191.13
8192.31
8164.33
8163.73
8162.84
8162.09
8161.8
8162.09
8162.84
8163.73
8164.33
8136.36
8136.05
8135.59
8135.19
8135.04
8135.19
8135.59
8136.05
8136.36
8108.42
8108.26
8108.02
8107.81
8107.73
8107.81
8108.02
8108.26
8108.42
8080.51
8080.42
8080.29
8080.18
8080.14
8080.18
8080.29
8080.42
8080.51
8052.64
8052.58
8052.49
8052.41
8052.39
8052.41
8052.49
8052.58
8052.64
8024.88
8024.78
8024.65
8024.56
8024.53
8024.56
8024.65
8024.78
8024.88
7997.39
7997.12
7996.78
7996.57
7996.51
7996.57
7996.78
7997.12
7997.39
7970.59
7969.79
7968.84
7968.29
7968.15
7968.29
7968.84
7969.79
7970.6
7945.55
7943.22
7940.59
7939.17
7938.86
7939.17
7940.59
7943.22
7945.55
7924.71
7918.16
7911.23
7907.8
7907.22
7907.8
7911.23
7918.16
7924.71
7912.45
7895.1
7878.11
7870.72
7869.93
7870.72
7878.11
7895.1
7912.45
7907.17
7868.67
7833.47
7820.45
7819.9
7820.45
7833.47
7868.67
7907.17
7840.73
7796.57
7758.93
7745.26
7744.7
7745.26
7758.93
7796.57
7840.73
7694.31
7671.92
7652.17
7643.87
7643
7643.87
7652.17
7671.92
7694.31
7548.67
7540.07
7531.65
7527.63
7526.97
7527.63
7531.65
7540.07
7548.67
7412.68
7409.63
7406.38
7404.67
7404.32
7404.67
7406.38
7409.63
7412.68
7281.78
7280.77
7279.65
7279.03
7278.89
7279.03
7279.65
7280.77
7281.78
7153.01
7152.77
7152.53
7152.44
7152.44
7152.44
7152.53
7152.77
7153.01
7025.05
7025.19
7025.43
7025.68
7025.79
7025.68
7025.43
7025.19
7025.05
6897.32
6897.8
6898.55
6899.21
6899.47
6899.21
6898.55
6897.8
6897.32
6769.47
6770.52
6772.14
6773.54
6774.08
6773.54
6772.14
6770.52
6769.47
6641.1
6643.29
6646.69
6649.58
6650.7
6649.58
6646.69
6643.29
6641.1
6511.4
6515.93
6523.22
6529.21
6531.45
6529.21
6523.22
6515.93
6511.4
6378.52
6387.75
6404.03
6416.37
6420.74
6416.37
6404.03
6387.75
6378.52
6238.25
6255.8
6294.76
6319.47
6327.46
6319.47
6294.76
6255.8
6238.25
6082.28
6107.29
6211.81
6255.98
6268.34
6255.98
6211.81
6107.29
6082.28
5900.79
5883.87
5883.87
5900.79
5727.28
5633.18
5386.88
5257.32
5217.76
5257.32
5386.88
5633.18
5727.28
5627.47
5500.83
5199.09
5077.14
5042.62
5077.14
5199.09
5500.83
5627.47
4758.84
4722.45
4707.31
4722.45
4758.84
4336.77
4325.47
4319.82
4325.47
4336.77
3921.13
3917.49
3915.5
3917.49
3921.13
3507.52
3506.33
3505.65
3506.33
3507.52
3094.59
3094.2
3093.97
3094.2
3094.59
2681.88
2681.76
2681.68
2681.76
2681.88
2269.26
2269.21
2269.19
2269.21
2269.26
1856.66
1856.64
1856.63
1856.64
1856.66
1444.06
1444.06
1444.06
1444.06
1444.06
1031.47
1031.47
1031.47
1031.47
1031.47
618.883
618.883
618.883
618.883
618.883
206.294
206.294
206.294
206.294
206.294
8299.68
8289.18
8274.43
8264.53
8261.07
8264.53
8274.43
8289.18
8299.68
8295.95
8279.87
8264.73
8255.45
8252.31
8255.45
8264.73
8279.87
8295.95
8259.37
8250.91
8243.28
8237.61
8235.55
8237.61
8243.28
8250.91
8259.37
8224.86
8221.69
8217.89
8214.8
8213.63
8214.8
8217.89
8221.69
8224.86
8194.37
8192.99
8191.08
8189.46
8188.83
8189.46
8191.08
8192.99
8194.37
8165.31
8164.65
8163.68
8162.84
8162.52
8162.84
8163.68
8164.65
8165.31
8136.83
8136.51
8136.02
8135.59
8135.43
8135.59
8136.02
8136.51
8136.83
8108.63
8108.48
8108.23
8108.02
8107.94
8108.02
8108.23
8108.48
8108.64
8080.57
8080.5
8080.39
8080.29
8080.26
8080.29
8080.39
8080.5
8080.57
8052.57
8052.54
8052.51
8052.49
8052.48
8052.49
8052.51
8052.54
8052.57
8024.59
8024.59
8024.6
8024.65
8024.67
8024.65
8024.6
8024.59
8024.59
7996.62
7996.6
7996.65
7996.78
7996.87
7996.78
7996.65
7996.6
7996.62
7968.62
7968.48
7968.52
7968.84
7969.08
7968.84
7968.52
7968.48
7968.62
7940.5
7939.94
7939.82
7940.59
7941.29
7940.59
7939.82
7939.94
7940.5
7911.79
7910.03
7909.34
7911.23
7913.34
7911.23
7909.34
7910.03
7911.79
7880.4
7875.85
7873.71
7878.11
7884.42
7878.11
7873.71
7875.85
7880.4
7838.51
7829.55
7824.96
7833.47
7849.69
7833.47
7824.96
7829.55
7838.51
7765.09
7755.05
7750.04
7758.93
7776.08
7758.93
7750.04
7755.05
7765.09
7655.77
7650.01
7647.31
7652.17
7659.33
7652.17
7647.31
7650.01
7655.77
7532.88
7530.51
7529.51
7531.65
7534.14
7531.65
7529.51
7530.51
7532.88
7406.47
7405.69
7405.48
7406.38
7407.23
7406.38
7405.48
7405.69
7406.47
7279.29
7279.12
7279.2
7279.65
7279.96
7279.65
7279.2
7279.12
7279.29
7151.92
7151.99
7152.22
7152.53
7152.7
7152.53
7152.22
7151.99
7151.92
7024.41
7024.65
7025.05
7025.43
7025.59
7025.43
7025.05
7024.65
7024.41
6896.7
6897.17
6897.9
6898.55
6898.8
6898.55
6897.9
6897.17
6896.7
6768.59
6769.51
6770.91
6772.14
6772.61
6772.14
6770.91
6769.51
6768.59
6639.69
6641.49
6644.3
6646.69
6647.61
6646.69
6644.3
6641.49
6639.69
6509.2
6512.77
6518.5
6523.22
6524.99
6523.22
6518.5
6512.77
6509.2
6375.5
6382.48
6394.74
6404.03
6407.32
6404.03
6394.74
6382.48
6375.5
6235.48
6248.25
6276.92
6294.76
6300.49
6294.76
6276.92
6248.25
6235.48
6083.73
6101.42
6180.68
6211.81
6220.24
6211.81
6180.68
6101.42
6083.73
5915.35
5900.75
5900.75
5915.35
5759.1
5684.27
5488.89
5386.88
5355.62
5386.88
5488.88
5684.27
5759.1
5668.65
5564.38
5301.09
5199.09
5170.28
5199.09
5301.09
5564.38
5668.65
4791.2
4758.84
4745.26
4758.84
4791.2
4347.23
4336.77
4331.5
4336.77
4347.23
3924.59
3921.13
3919.23
3921.13
3924.59
3508.66
3507.52
3506.85
3507.52
3508.66
3094.97
3094.59
3094.36
3094.59
3094.97
2682.01
2681.88
2681.81
2681.88
2682.01
2269.3
2269.26
2269.23
2269.26
2269.3
1856.67
1856.66
1856.65
1856.66
1856.67
1444.07
1444.06
1444.06
1444.06
1444.07
1031.47
1031.47
1031.47
1031.47
1031.47
618.884
618.883
618.883
618.883
618.884
206.295
206.294
206.294
206.294
206.295
8301.97
8299.6
8289.18
8273.71
8268.37
8273.71
8289.18
8299.6
8301.97
8300.21
8291.32
8279.87
8263.96
8258.87
8263.96
8279.87
8291.32
8300.21
8265.15
8258.18
8250.91
8243.05
8240.11
8243.05
8250.91
8258.18
8265.15
8228.57
8225.62
8221.69
8217.89
8216.39
8217.89
8221.69
8225.62
8228.57
8196.39
8195.01
8192.99
8191.13
8190.38
8191.13
8192.99
8195.01
8196.39
8166.35
8165.67
8164.65
8163.73
8163.36
8163.73
8164.65
8165.67
8166.35
8137.35
8137.02
8136.51
8136.05
8135.87
8136.05
8136.51
8137.02
8137.35
8108.88
8108.72
8108.48
8108.26
8108.18
8108.26
8108.48
8108.72
8108.88
8080.64
8080.58
8080.5
8080.42
8080.39
8080.42
8080.5
8080.59
8080.64
8052.5
8052.51
8052.54
8052.58
8052.6
8052.58
8052.54
8052.51
8052.5
8024.3
8024.4
8024.59
8024.78
8024.87
8024.78
8024.59
8024.4
8024.3
7995.88
7996.13
7996.6
7997.12
7997.37
7997.12
7996.6
7996.13
7995.88
7966.9
7967.41
7968.48
7969.79
7970.49
7969.79
7968.48
7967.41
7966.9
7936.59
7937.59
7939.94
7943.22
7945.26
7943.22
7939.94
7937.6
7936.59
7903.28
7905.09
7910.03
7918.16
7924.65
7918.16
7910.03
7905.09
7903.28
7863.44
7866.32
7875.85
7895.1
7917.36
7895.1
7875.85
7866.32
7863.44
7810.41
7814.21
7829.55
7868.67
7950.18
7868.67
7829.55
7814.21
7810.41
7735.23
7739.05
7755.05
7796.57
7884.06
7796.57
7755.05
7739.05
7735.23
7636.53
7639.5
7650.01
7671.92
7698.37
7671.92
7650.01
7639.5
7636.53
7522.96
7524.89
7530.51
7540.07
7548.05
7540.07
7530.51
7524.89
7522.96
7401.83
7402.95
7405.69
7409.63
7412.18
7409.63
7405.69
7402.95
7401.83
7277.17
7277.8
7279.12
7280.77
7281.66
7280.77
7279.12
7277.8
7277.17
7150.88
7151.27
7151.99
7152.77
7153.14
7152.77
7151.99
7151.27
7150.88
7023.75
7024.09
7024.65
7025.19
7025.41
7025.19
7024.65
7024.09
7023.75
6896.02
6896.47
6897.17
6897.8
6898.05
6897.8
6897.17
6896.47
6896.02
6767.59
6768.35
6769.51
6770.52
6770.92
6770.52
6769.51
6768.35
6767.59
6638.06
6639.41
6641.49
6643.29
6643.98
6643.29
6641.49
6639.41
6638.06
6506.61
6509
6512.77
6515.93
6517.13
6515.93
6512.77
6509
6506.61
6371.83
6375.82
6382.48
6387.75
6389.67
6387.75
6382.48
6375.82
6371.83
6231.67
6237.26
6248.25
6255.8
6258.31
6255.8
6248.25
6237.26
6231.67
6084.22
6087.89
6101.42
6107.29
6108.66
6107.29
6101.42
6087.89
6084.22
5932.4
5918.88
5900.75
5883.87
5877.47
5883.87
5900.75
5918.88
5932.4
5799.78
5759.01
5684.27
5633.18
5615.89
5633.18
5684.27
5759.01
5799.78
5723.18
5666.88
5564.38
5500.83
5480.11
5500.83
5564.38
5666.88
5723.18
8302.72
8301.97
8299.68
8282.49
8274.48
8282.49
8299.68
8301.97
8302.72
8303.36
8300.21
8295.95
8272.77
8264.53
8272.77
8295.95
8300.21
8303.36
8268.59
8265.15
8259.37
8247.84
8243.75
8247.84
8259.37
8265.15
8268.59
8230.85
8228.57
8224.86
8220.27
8218.43
8220.27
8224.86
8228.57
8230.85
8197.66
8196.39
8194.37
8192.31
8191.47
8192.31
8194.37
8196.39
8197.66
8167.01
8166.35
8165.31
8164.33
8163.93
8164.33
8165.31
8166.35
8167.01
8137.69
8137.35
8136.83
8136.36
8136.17
8136.36
8136.83
8137.35
8137.69
8109.03
8108.88
8108.64
8108.42
8108.33
8108.42
8108.64
8108.88
8109.03
8080.69
8080.64
8080.57
8080.51
8080.48
8080.51
8080.57
8080.64
8080.69
8052.45
8052.5
8052.57
8052.64
8052.68
8052.64
8052.57
8052.5
8052.45
8024.13
8024.3
8024.59
8024.88
8025.01
8024.88
8024.59
8024.3
8024.13
7995.47
7995.88
7996.62
7997.39
7997.76
7997.39
7996.62
7995.88
7995.47
7965.98
7966.9
7968.62
7970.6
7971.63
7970.6
7968.62
7966.9
7965.98
7934.67
7936.59
7940.5
7945.55
7948.71
7945.55
7940.5
7936.59
7934.67
7899.5
7903.28
7911.79
7924.71
7935.58
7924.71
7911.79
7903.28
7899.5
7856.76
7863.44
7880.4
7912.45
7954.84
7912.45
7880.4
7863.44
7856.76
7800.67
7810.41
7838.51
7907.17
8075.61
7907.17
7838.51
7810.41
7800.67
7725.08
7735.23
7765.09
7840.73
8040.66
7840.73
7765.09
7735.23
7725.08
7629.2
7636.53
7655.77
7694.31
7754.37
7694.31
7655.77
7636.53
7629.2
7518.67
7522.96
7532.88
7548.67
7563.37
7548.67
7532.88
7522.96
7518.67
7399.59
7401.83
7406.47
7412.68
7416.84
7412.68
7406.47
7401.83
7399.59
7276.05
7277.17
7279.29
7281.78
7283.12
7281.78
7279.29
7277.17
7276.05
7150.29
7150.88
7151.92
7153.01
7153.52
7153.01
7151.92
7150.88
7150.29
7023.34
7023.75
7024.41
7025.05
7025.32
7025.05
7024.41
7023.75
7023.34
6895.58
6896.02
6896.7
6897.32
6897.56
6897.32
6896.7
6896.02
6895.58
6766.94
6767.59
6768.59
6769.47
6769.81
6769.47
6768.59
6767.59
6766.94
6637
6638.06
6639.69
6641.1
6641.65
6641.1
6639.69
6638.06
6637
6504.94
6506.61
6509.2
6511.4
6512.25
6511.4
6509.2
6506.61
6504.94
6369.54
6371.83
6375.5
6378.51
6379.63
6378.51
6375.5
6371.83
6369.54
6229.58
6231.67
6235.48
6238.25
6239.19
6238.25
6235.48
6231.67
6229.58
6085.45
6084.22
6083.73
6082.28
6081.5
6082.28
6083.73
6084.22
6085.45
5943.84
5932.4
5915.35
5900.79
5895.24
5900.79
5915.35
5932.4
5943.84
5825.15
5799.78
5759.1
5727.28
5715.72
5727.28
5759.1
5799.78
5825.15
5757.2
5723.18
5668.65
5627.47
5612.77
5627.47
5668.65
5723.18
5757.2
)
;

boundaryField
{
    injectionXMinus
    {
        type            fixedValue;
        value           uniform 8304.96;
    }
    injectionXPlus
    {
        type            fixedValue;
        value           uniform 8304.96;
    }
    injectionYMinus
    {
        type            fixedValue;
        value           uniform 8304.96;
    }
    injectionYPlus
    {
        type            fixedValue;
        value           uniform 8304.96;
    }
    inletXMinus
    {
        type            fixedValue;
        value           uniform 8304.96;
    }
    inletXPlus
    {
        type            fixedValue;
        value           uniform 8304.96;
    }
    inletYMinus
    {
        type            fixedValue;
        value           uniform 8304.96;
    }
    inletYPlus
    {
        type            fixedValue;
        value           uniform 8304.96;
    }
    outlet
    {
        type            fixedValue;
        value           uniform 0;
    }
    valve
    {
        type            zeroGradient;
    }
    walls
    {
        type            zeroGradient;
    }
}


// ************************************************************************* //
