/*--------------------------------*- C++ -*----------------------------------*\
  =========                 |
  \\      /  F ield         | OpenFOAM: The Open Source CFD Toolbox
   \\    /   O peration     | Website:  https://openfoam.org
    \\  /    A nd           | Version:  6
     \\/     M anipulation  |
\*---------------------------------------------------------------------------*/
FoamFile
{
    version     2.0;
    format      ascii;
    class       volScalarField;
    location    "0";
    object      p;
}
// * * * * * * * * * * * * * * * * * * * * * * * * * * * * * * * * * * * * * //

dimensions      [0 2 -2 0 0 0 0];

internalField   nonuniform List<scalar> 
3029
(
99.0202
97.6908
96.2082
92.1428
90.9796
92.1428
96.2082
97.6908
99.0202
97.7537
96.1474
94.6988
90.6244
89.564
90.6244
94.6988
96.1474
97.7537
90.7385
89.8921
88.7995
87.3426
86.8215
87.3426
88.7995
89.8921
90.7385
85.4233
84.999
84.3933
83.7735
83.5318
83.7735
84.3933
84.999
85.4233
80.9567
80.747
80.4361
80.148
80.0339
80.148
80.4361
80.747
80.9567
76.9094
76.8058
76.6497
76.5103
76.455
76.5103
76.6497
76.8058
76.9095
73.0694
73.0179
72.9397
72.8707
72.8434
72.8707
72.9397
73.0179
73.0694
69.3324
69.3064
69.2667
69.2319
69.2181
69.2319
69.2668
69.3064
69.3324
65.6473
65.6335
65.6124
65.5936
65.5862
65.5936
65.6124
65.6336
65.6474
61.9899
61.9811
61.9673
61.9548
61.9497
61.9548
61.9673
61.9811
61.9899
58.35
58.3413
58.3268
58.3125
58.3064
58.3125
58.3268
58.3413
58.35
54.7276
54.7133
54.6877
54.6601
54.6471
54.6601
54.6877
54.7133
54.7276
51.1336
51.1045
51.0477
50.9805
50.9448
50.9805
51.0477
51.1045
51.1336
47.5979
47.5365
47.4057
47.2304
47.1179
47.2304
47.4057
47.5365
47.5979
44.1848
44.062
43.7692
43.3051
42.9048
43.3051
43.7692
44.062
44.1848
41.0174
40.7971
40.1959
38.9964
37.3634
38.9964
40.1959
40.7971
41.0174
38.2907
37.9684
36.9539
34.2354
26.5663
34.2354
36.954
37.9684
38.2907
36.2087
35.8907
34.8969
32.2719
25.0664
32.2719
34.8969
35.8907
36.2087
34.7625
34.5478
33.9655
32.8153
31.2756
32.8153
33.9655
34.5478
34.7625
33.7458
33.627
33.3451
32.901
32.522
32.901
33.3451
33.627
33.7458
32.9667
32.908
32.7829
32.6157
32.5091
32.6157
32.7829
32.908
32.9667
32.3051
32.2781
32.2251
32.1621
32.1285
32.1621
32.2251
32.2781
32.3051
31.6976
31.6859
31.6643
31.6406
31.6293
31.6406
31.6643
31.6859
31.6976
31.1134
31.1089
31.101
31.0926
31.0888
31.0926
31.101
31.1089
31.1134
30.5381
30.5373
30.5358
30.5341
30.5333
30.5341
30.5358
30.5373
30.5381
29.9643
29.966
29.9686
29.9706
29.9714
29.9706
29.9686
29.966
29.9643
29.3871
29.3913
29.3977
29.4031
29.4053
29.4031
29.3977
29.3913
29.3871
28.8015
28.8086
28.8197
28.8291
28.8327
28.8291
28.8197
28.8086
28.8015
28.2016
28.2116
28.2277
28.2408
28.2457
28.2408
28.2277
28.2116
28.2016
27.5818
27.591
27.6077
27.6199
27.624
27.6199
27.6077
27.591
27.5818
26.9436
26.9382
26.936
26.9297
26.9263
26.9297
26.936
26.9382
26.9436
26.3164
26.2658
26.1904
26.1261
26.1016
26.1261
26.1904
26.2658
26.3164
25.7905
25.6781
25.4981
25.3576
25.3065
25.3576
25.4981
25.6781
25.7905
25.4892
25.3386
25.0973
24.9154
24.8505
24.9154
25.0973
25.3386
25.4892
97.6908
94.7686
92.7294
90.7654
90.0689
90.7654
92.7294
94.7686
97.6908
96.1474
93.0197
91.1463
89.3802
88.7699
89.3802
91.1463
93.0197
96.1474
89.8921
88.7836
87.6791
86.6938
86.3268
86.6938
87.6791
88.7836
89.8921
84.999
84.5393
83.9586
83.4518
83.2566
83.4518
83.9586
84.5393
84.999
80.747
80.5372
80.2424
79.9864
79.8865
79.9864
80.2424
80.5372
80.747
76.8058
76.7051
76.5568
76.4278
76.3772
76.4278
76.5568
76.7051
76.8058
73.0179
72.9682
72.8935
72.8283
72.8027
72.8283
72.8935
72.9682
73.0179
69.3064
69.2814
69.2434
69.2101
69.197
69.2101
69.2434
69.2814
69.3064
65.6336
65.6205
65.6005
65.5829
65.576
65.5829
65.6006
65.6205
65.6336
61.9811
61.9735
61.9616
61.9507
61.9464
61.9508
61.9616
61.9736
61.9811
58.3413
58.3353
58.3249
58.3146
58.3101
58.3146
58.3249
58.3353
58.3413
54.7133
54.7057
54.6904
54.6728
54.6643
54.6728
54.6904
54.7057
54.7134
51.1045
51.0913
51.0603
51.0196
50.9976
51.0196
51.0603
51.0913
51.1045
47.5365
47.5126
47.4446
47.3427
47.2791
47.3427
47.4446
47.5126
47.5365
44.062
44.0222
43.8774
43.6246
43.4316
43.6246
43.8774
44.0222
44.062
40.7971
40.7418
40.4625
39.8821
39.2969
39.8821
40.4625
40.7418
40.7971
37.9684
37.9093
37.4729
36.3892
34.8371
36.3892
37.4729
37.9093
37.9684
35.8907
35.8314
35.4023
34.3461
32.86
34.3461
35.4023
35.8315
35.8907
34.5478
34.4933
34.2222
33.6628
33.1056
33.6628
34.2222
34.4933
34.5478
33.627
33.5884
33.4489
33.2066
33.0228
33.2066
33.4489
33.5884
33.627
32.908
32.8853
32.8206
32.7236
32.6632
32.7236
32.8206
32.8853
32.908
32.2781
32.2663
32.2381
32.2005
32.18
32.2005
32.2381
32.2664
32.2781
31.6859
31.6805
31.6689
31.6547
31.6477
31.6547
31.6689
31.6805
31.6859
31.1089
31.1071
31.1032
31.0986
31.0964
31.0986
31.1032
31.1071
31.1089
30.5373
30.5378
30.5382
30.5381
30.538
30.5381
30.5382
30.5378
30.5373
29.966
29.9687
29.9726
29.9759
29.9772
29.9759
29.9726
29.9687
29.966
29.3913
29.3969
29.4056
29.413
29.4159
29.413
29.4056
29.3969
29.3913
28.8086
28.819
28.8355
28.8492
28.8544
28.8492
28.8355
28.819
28.8086
28.2116
28.2291
28.2584
28.2816
28.29
28.2816
28.2584
28.2291
28.2116
27.591
27.6156
27.664
27.6973
27.7084
27.6973
27.664
27.6156
27.591
26.9382
26.9544
27.0142
27.0403
27.0464
27.0403
27.0142
26.9544
26.9381
26.2658
26.2059
26.1258
26.0514
26.0232
26.0514
26.1258
26.2059
26.2658
25.6781
25.4977
25.1671
24.9416
24.8652
24.9416
25.1671
25.4977
25.6781
25.3386
25.0897
24.6368
24.3563
24.2647
24.3563
24.6368
25.0897
25.3386
96.2082
92.7294
90.7714
89.5058
89.0643
89.5058
90.7714
92.7294
96.2082
94.6988
91.1463
89.3866
88.2815
87.8989
88.2815
89.3866
91.1463
94.6988
88.7995
87.6791
86.6926
85.9825
85.7252
85.9825
86.6926
87.6791
88.7995
84.3933
83.9586
83.4456
83.0421
82.8907
83.0421
83.4456
83.9586
84.3933
80.4361
80.2424
79.9794
79.7619
79.6785
79.7619
79.9794
80.2424
80.4361
76.6497
76.5568
76.4222
76.3077
76.2633
76.3077
76.4222
76.5568
76.6498
72.9397
72.8935
72.8246
72.7651
72.7418
72.7651
72.8246
72.8935
72.9397
69.2668
69.2434
69.2081
69.1773
69.1652
69.1773
69.2081
69.2434
69.2668
65.6124
65.6005
65.5825
65.5666
65.5603
65.5666
65.5825
65.6006
65.6124
61.9673
61.9616
61.9525
61.9442
61.9409
61.9442
61.9525
61.9616
61.9673
58.3268
58.3249
58.321
58.3165
58.3144
58.3165
58.321
58.3249
58.3268
54.6877
54.6904
54.6909
54.6877
54.6854
54.6877
54.6909
54.6904
54.6877
51.0477
51.0603
51.068
51.0637
51.0583
51.0637
51.068
51.0603
51.0477
47.4057
47.4446
47.4691
47.458
47.4418
47.458
47.4691
47.4446
47.4057
43.7692
43.8774
43.9412
43.909
43.8591
43.909
43.9412
43.8774
43.7692
40.1959
40.4625
40.6052
40.5225
40.3844
40.5226
40.6052
40.4625
40.1959
36.9539
37.4729
37.7198
37.5618
37.2652
37.5618
37.7198
37.4729
36.954
34.8969
35.4023
35.6442
35.4903
35.2032
35.4903
35.6442
35.4023
34.8969
33.9655
34.2222
34.3602
34.2811
34.149
34.2811
34.3602
34.2222
33.9655
33.3451
33.4489
33.5105
33.4802
33.4329
33.4802
33.5105
33.4489
33.3451
32.7829
32.8206
32.8448
32.835
32.8199
32.835
32.8448
32.8206
32.7829
32.2251
32.2381
32.247
32.2443
32.2398
32.2443
32.247
32.2381
32.2251
31.6643
31.6689
31.6724
31.6722
31.671
31.6722
31.6724
31.6689
31.6643
31.101
31.1032
31.1056
31.1066
31.1067
31.1066
31.1056
31.1032
31.101
30.5358
30.5382
30.5414
30.5439
30.5448
30.5439
30.5414
30.5382
30.5358
29.9686
29.9726
29.9788
29.984
29.986
29.984
29.9788
29.9726
29.9685
29.3977
29.4056
29.4179
29.4284
29.4325
29.4284
29.4179
29.4056
29.3976
28.8197
28.8355
28.8608
28.8817
28.8895
28.8817
28.8608
28.8355
28.8197
28.2277
28.2584
28.3127
28.3537
28.3683
28.3537
28.3127
28.2584
28.2276
27.6077
27.664
27.7909
27.8698
27.8951
27.8698
27.7909
27.664
27.6077
26.936
27.0142
27.3649
27.5025
27.5398
27.5025
27.3649
27.0142
26.936
26.1904
26.1258
26.1258
26.1904
25.4981
25.1671
24.3024
23.8519
23.7137
23.8519
24.3024
25.1671
25.4981
25.0973
24.6368
23.4737
23.0229
22.8952
23.0229
23.4737
24.6368
25.0973
21.2204
21.0767
21.0164
21.0767
21.2204
19.255
19.2086
19.1852
19.2086
19.255
17.3827
17.3675
17.3592
17.3675
17.3827
15.5405
15.5356
15.5327
15.5356
15.5405
13.7082
13.7066
13.7056
13.7066
13.7082
11.8792
11.8787
11.8784
11.8787
11.8792
10.0512
10.0511
10.051
10.0511
10.0512
8.22362
8.22356
8.22353
8.22356
8.22362
6.39611
6.39609
6.39608
6.39609
6.39611
4.56864
4.56864
4.56863
4.56864
4.56864
2.74118
2.74118
2.74118
2.74118
2.74118
0.913727
0.913727
0.913726
0.913727
0.913727
92.1428
90.7654
89.5058
88.6462
88.342
88.6462
89.5058
90.7654
92.1428
90.6244
89.3802
88.2815
87.5352
87.271
87.5352
88.2815
89.3802
90.6244
87.3426
86.6938
85.9825
85.4599
85.2697
85.4599
85.9825
86.6938
87.3426
83.7735
83.4518
83.0421
82.7201
82.5996
82.7201
83.0421
83.4518
83.7735
80.148
79.9864
79.7619
79.5773
79.5068
79.5773
79.7619
79.9864
80.148
76.5103
76.4278
76.3077
76.2062
76.1669
76.2062
76.3077
76.4278
76.5103
72.8707
72.8283
72.7651
72.7107
72.6894
72.7107
72.7651
72.8283
72.8707
69.2319
69.2101
69.1773
69.1488
69.1376
69.1488
69.1773
69.2101
69.2319
65.5936
65.5829
65.5666
65.5522
65.5465
65.5522
65.5666
65.5829
65.5936
61.9548
61.9508
61.9442
61.9382
61.9357
61.9382
61.9442
61.9508
61.9548
58.3125
58.3146
58.3165
58.317
58.3169
58.317
58.3165
58.3146
58.3125
54.6601
54.6728
54.6877
54.6971
54.6998
54.6971
54.6877
54.6728
54.6601
50.9805
51.0196
51.0637
51.0904
51.0979
51.0904
51.0637
51.0196
50.9805
47.2304
47.3427
47.458
47.5219
47.5382
47.5219
47.458
47.3427
47.2304
43.3051
43.6246
43.909
44.0484
44.0788
44.0484
43.909
43.6247
43.3051
38.9964
39.8821
40.5225
40.7928
40.8399
40.7928
40.5226
39.8821
38.9964
34.2354
36.3892
37.5618
37.9836
38.04
37.9836
37.5618
36.3892
34.2354
32.2719
34.3461
35.4903
35.9052
35.9615
35.9052
35.4903
34.3461
32.2719
32.8153
33.6628
34.2811
34.5439
34.5903
34.5439
34.2811
33.6628
32.8153
32.901
33.2066
33.4802
33.6153
33.6451
33.6153
33.4802
33.2066
32.901
32.6157
32.7236
32.835
32.8972
32.9133
32.8972
32.835
32.7236
32.6157
32.1621
32.2005
32.2443
32.2714
32.2792
32.2714
32.2443
32.2005
32.1621
31.6406
31.6547
31.6722
31.6839
31.6876
31.6839
31.6722
31.6547
31.6406
31.0926
31.0986
31.1066
31.1125
31.1145
31.1125
31.1066
31.0986
31.0926
30.5341
30.5381
30.5439
30.5487
30.5505
30.5487
30.5439
30.5381
30.5341
29.9706
29.9759
29.984
29.9909
29.9935
29.9909
29.984
29.9759
29.9706
29.4031
29.413
29.4284
29.4415
29.4465
29.4415
29.4284
29.413
29.4031
28.8291
28.8492
28.8817
28.9083
28.9182
28.9083
28.8817
28.8492
28.8291
28.2408
28.2816
28.3537
28.4084
28.4278
28.4084
28.3537
28.2816
28.2408
27.6199
27.6973
27.8698
27.9792
28.0145
27.9792
27.8698
27.6973
27.6199
26.9297
27.0403
27.5025
27.6979
27.7526
27.6979
27.5025
27.0402
26.9297
26.1261
26.0514
26.0514
26.1261
25.3576
24.9416
23.8519
23.2791
23.104
23.2791
23.8519
24.9416
25.3575
24.9154
24.3563
23.0229
22.4836
22.3307
22.4836
23.0229
24.3563
24.9154
21.0767
20.9153
20.8483
20.9153
21.0767
19.2086
19.1585
19.1335
19.1585
19.2086
17.3675
17.3516
17.3429
17.3516
17.3675
15.5356
15.5304
15.5275
15.5304
15.5356
13.7066
13.705
13.704
13.705
13.7066
11.8787
11.8781
11.8778
11.8781
11.8787
10.0511
10.0509
10.0508
10.0509
10.0511
8.22356
8.22351
8.22347
8.22351
8.22356
6.39609
6.39608
6.39606
6.39608
6.39609
4.56864
4.56863
4.56863
4.56863
4.56864
2.74118
2.74118
2.74118
2.74118
2.74118
0.913727
0.913726
0.913726
0.913726
0.913727
90.9796
90.0689
89.0643
88.342
88.0826
88.342
89.0643
90.0689
90.9796
89.564
88.7699
87.8989
87.271
87.0448
87.271
87.8989
88.7699
89.564
86.8215
86.3268
85.7252
85.2697
85.1023
85.2697
85.7252
86.3268
86.8215
83.5318
83.2566
82.8907
82.5996
82.4903
82.5996
82.8907
83.2566
83.5318
80.0339
79.8865
79.6785
79.5068
79.4412
79.5068
79.6785
79.8865
80.0339
76.455
76.3772
76.2633
76.1669
76.1297
76.167
76.2633
76.3772
76.455
72.8434
72.8027
72.7418
72.6894
72.669
72.6894
72.7418
72.8027
72.8434
69.2181
69.197
69.1652
69.1376
69.1267
69.1376
69.1652
69.197
69.2181
65.5862
65.576
65.5603
65.5465
65.541
65.5465
65.5603
65.576
65.5862
61.9497
61.9464
61.9409
61.9357
61.9336
61.9357
61.9409
61.9464
61.9497
58.3064
58.3101
58.3144
58.3169
58.3177
58.3169
58.3144
58.3101
58.3064
54.6472
54.6643
54.6854
54.6998
54.7046
54.6998
54.6854
54.6643
54.6472
50.9448
50.9976
51.0583
51.0979
51.1106
51.0979
51.0583
50.9976
50.9448
47.1179
47.2791
47.4418
47.5382
47.567
47.5382
47.4418
47.2791
47.118
42.9048
43.4316
43.8591
44.0788
44.1388
44.0788
43.8591
43.4316
42.9048
37.3634
39.2969
40.3844
40.8399
40.9508
40.84
40.3844
39.2969
37.3634
26.5663
34.8371
37.2652
38.04
38.206
38.04
37.2652
34.8371
26.5663
25.0664
32.86
35.2032
35.9615
36.1251
35.9615
35.2032
32.86
25.0664
31.2756
33.1056
34.149
34.5903
34.6982
34.5903
34.1491
33.1056
31.2756
32.522
33.0228
33.4329
33.6451
33.7033
33.6451
33.4329
33.0228
32.522
32.5091
32.6632
32.8199
32.9133
32.9414
32.9133
32.8199
32.6632
32.5091
32.1285
32.18
32.2398
32.2792
32.2919
32.2792
32.2398
32.18
32.1285
31.6292
31.6477
31.671
31.6876
31.6933
31.6876
31.671
31.6477
31.6292
31.0888
31.0964
31.1066
31.1145
31.1173
31.1145
31.1066
31.0964
31.0888
30.5333
30.538
30.5448
30.5505
30.5526
30.5505
30.5448
30.538
30.5333
29.9714
29.9772
29.986
29.9935
29.9964
29.9935
29.986
29.9772
29.9714
29.4053
29.4159
29.4325
29.4465
29.4519
29.4465
29.4325
29.4159
29.4053
28.8327
28.8544
28.8894
28.9182
28.9289
28.9182
28.8894
28.8544
28.8327
28.2457
28.29
28.3683
28.4278
28.4489
28.4278
28.3683
28.29
28.2457
27.624
27.7084
27.8951
28.0145
28.0533
28.0145
27.8951
27.7084
27.624
26.9263
27.0464
27.5398
27.7526
27.8127
27.7526
27.5398
27.0463
26.9263
26.1016
26.0232
26.0232
26.1016
25.3065
24.8652
23.7137
23.104
22.9171
23.104
23.7137
24.8652
25.3065
24.8505
24.2647
22.8952
22.3307
22.1697
22.3307
22.8952
24.2647
24.8505
21.0164
20.8483
20.7784
20.8483
21.0164
19.1852
19.1335
19.1077
19.1335
19.1852
17.3592
17.3429
17.3339
17.3429
17.3592
15.5327
15.5275
15.5245
15.5275
15.5327
13.7056
13.704
13.703
13.704
13.7056
11.8784
11.8778
11.8775
11.8778
11.8784
10.051
10.0508
10.0507
10.0508
10.051
8.22353
8.22347
8.22343
8.22347
8.22353
6.39608
6.39606
6.39605
6.39606
6.39608
4.56863
4.56863
4.56862
4.56863
4.56863
2.74118
2.74118
2.74118
2.74118
2.74118
0.913726
0.913726
0.913725
0.913726
0.913726
92.1428
90.7654
89.5058
88.6462
88.342
88.6462
89.5058
90.7654
92.1428
90.6244
89.3802
88.2815
87.5352
87.271
87.5352
88.2815
89.3802
90.6244
87.3426
86.6938
85.9825
85.4599
85.2697
85.4599
85.9825
86.6938
87.3426
83.7735
83.4518
83.0421
82.7201
82.5996
82.7201
83.0421
83.4518
83.7735
80.148
79.9864
79.7619
79.5773
79.5068
79.5773
79.7619
79.9864
80.148
76.5103
76.4278
76.3077
76.2062
76.167
76.2062
76.3078
76.4278
76.5103
72.8707
72.8283
72.7651
72.7107
72.6894
72.7107
72.7651
72.8283
72.8707
69.2319
69.2101
69.1773
69.1488
69.1376
69.1488
69.1773
69.2102
69.2319
65.5936
65.5829
65.5666
65.5522
65.5465
65.5522
65.5666
65.5829
65.5936
61.9548
61.9508
61.9442
61.9382
61.9357
61.9382
61.9442
61.9508
61.9548
58.3125
58.3146
58.3165
58.317
58.3169
58.317
58.3165
58.3146
58.3126
54.6601
54.6728
54.6877
54.6971
54.6998
54.6971
54.6877
54.6728
54.6601
50.9805
51.0196
51.0637
51.0904
51.0979
51.0904
51.0637
51.0196
50.9805
47.2304
47.3427
47.458
47.5219
47.5382
47.5219
47.458
47.3427
47.2304
43.3051
43.6246
43.909
44.0484
44.0788
44.0484
43.909
43.6247
43.3051
38.9964
39.8821
40.5226
40.7928
40.84
40.7928
40.5226
39.8821
38.9964
34.2354
36.3892
37.5618
37.9836
38.04
37.9836
37.5618
36.3892
34.2354
32.2719
34.3461
35.4903
35.9052
35.9615
35.9052
35.4903
34.3461
32.2719
32.8153
33.6628
34.2811
34.5439
34.5903
34.5439
34.2811
33.6628
32.8153
32.901
33.2066
33.4802
33.6153
33.6451
33.6153
33.4802
33.2066
32.901
32.6157
32.7236
32.835
32.8972
32.9133
32.8972
32.835
32.7236
32.6157
32.1621
32.2005
32.2443
32.2714
32.2792
32.2714
32.2443
32.2005
32.1621
31.6406
31.6547
31.6722
31.6839
31.6876
31.6839
31.6722
31.6547
31.6406
31.0926
31.0986
31.1066
31.1125
31.1145
31.1125
31.1066
31.0986
31.0926
30.5341
30.5381
30.5439
30.5487
30.5505
30.5487
30.5439
30.5381
30.5341
29.9706
29.9759
29.984
29.9909
29.9935
29.9909
29.984
29.9759
29.9706
29.4031
29.413
29.4284
29.4415
29.4465
29.4415
29.4284
29.413
29.4031
28.8291
28.8492
28.8816
28.9083
28.9182
28.9083
28.8816
28.8492
28.8291
28.2408
28.2816
28.3537
28.4084
28.4278
28.4084
28.3537
28.2816
28.2408
27.6199
27.6973
27.8698
27.9791
28.0145
27.9791
27.8698
27.6973
27.6199
26.9297
27.0402
27.5025
27.6979
27.7526
27.6979
27.5025
27.0402
26.9297
26.1261
26.0514
26.0514
26.1261
25.3575
24.9416
23.8519
23.2791
23.104
23.2791
23.8519
24.9416
25.3575
24.9154
24.3563
23.0229
22.4836
22.3307
22.4836
23.0229
24.3563
24.9154
21.0767
20.9153
20.8483
20.9153
21.0767
19.2086
19.1585
19.1335
19.1585
19.2086
17.3675
17.3516
17.3429
17.3516
17.3675
15.5356
15.5304
15.5275
15.5304
15.5356
13.7066
13.705
13.704
13.705
13.7066
11.8787
11.8781
11.8778
11.8781
11.8787
10.0511
10.0509
10.0508
10.0509
10.0511
8.22356
8.22351
8.22347
8.22351
8.22356
6.39609
6.39608
6.39606
6.39607
6.39609
4.56864
4.56863
4.56863
4.56863
4.56863
2.74118
2.74118
2.74118
2.74118
2.74118
0.913727
0.913726
0.913726
0.913726
0.913726
96.2082
92.7294
90.7714
89.5058
89.0643
89.5058
90.7714
92.7294
96.2082
94.6988
91.1463
89.3866
88.2815
87.8989
88.2815
89.3866
91.1463
94.6988
88.7995
87.6791
86.6926
85.9825
85.7252
85.9825
86.6926
87.6791
88.7995
84.3933
83.9586
83.4456
83.0421
82.8907
83.0421
83.4456
83.9586
84.3933
80.4361
80.2424
79.9794
79.7619
79.6785
79.7619
79.9794
80.2424
80.4361
76.6498
76.5568
76.4222
76.3077
76.2633
76.3078
76.4222
76.5568
76.6498
72.9397
72.8935
72.8246
72.7651
72.7418
72.7651
72.8246
72.8935
72.9397
69.2668
69.2434
69.2081
69.1773
69.1652
69.1773
69.2081
69.2434
69.2668
65.6124
65.6006
65.5825
65.5666
65.5603
65.5666
65.5825
65.6006
65.6124
61.9673
61.9616
61.9525
61.9442
61.9409
61.9442
61.9525
61.9616
61.9673
58.3268
58.325
58.3211
58.3165
58.3144
58.3165
58.3211
58.325
58.3268
54.6877
54.6904
54.6909
54.6877
54.6854
54.6877
54.6909
54.6904
54.6877
51.0477
51.0603
51.068
51.0637
51.0584
51.0637
51.068
51.0603
51.0478
47.4057
47.4446
47.4691
47.458
47.4418
47.458
47.4691
47.4446
47.4057
43.7692
43.8774
43.9412
43.909
43.8591
43.909
43.9412
43.8774
43.7692
40.1959
40.4625
40.6052
40.5226
40.3844
40.5226
40.6052
40.4626
40.1959
36.954
37.4729
37.7198
37.5618
37.2652
37.5618
37.7198
37.4729
36.954
34.8969
35.4023
35.6442
35.4903
35.2032
35.4903
35.6442
35.4023
34.8969
33.9655
34.2222
34.3602
34.2811
34.1491
34.2811
34.3602
34.2222
33.9655
33.3451
33.4489
33.5105
33.4802
33.4329
33.4802
33.5105
33.4489
33.3451
32.7829
32.8206
32.8448
32.835
32.8199
32.835
32.8448
32.8206
32.7829
32.2251
32.238
32.247
32.2443
32.2398
32.2443
32.247
32.2381
32.2251
31.6643
31.6689
31.6724
31.6721
31.671
31.6721
31.6724
31.6689
31.6643
31.101
31.1032
31.1056
31.1066
31.1066
31.1066
31.1056
31.1032
31.101
30.5358
30.5382
30.5414
30.5439
30.5448
30.5439
30.5414
30.5382
30.5358
29.9685
29.9726
29.9788
29.984
29.986
29.984
29.9788
29.9726
29.9685
29.3976
29.4056
29.4179
29.4284
29.4324
29.4284
29.4179
29.4056
29.3976
28.8197
28.8355
28.8608
28.8816
28.8894
28.8816
28.8608
28.8354
28.8197
28.2276
28.2584
28.3127
28.3537
28.3683
28.3537
28.3126
28.2584
28.2276
27.6077
27.664
27.7909
27.8698
27.8951
27.8698
27.7909
27.664
27.6077
26.936
27.0142
27.3649
27.5025
27.5398
27.5025
27.3649
27.0142
26.936
26.1903
26.1258
26.1258
26.1903
25.4981
25.1671
24.3024
23.8519
23.7137
23.8519
24.3024
25.167
25.4981
25.0973
24.6368
23.4737
23.0229
22.8952
23.0229
23.4737
24.6368
25.0973
21.2204
21.0767
21.0164
21.0767
21.2204
19.255
19.2086
19.1852
19.2086
19.255
17.3827
17.3675
17.3592
17.3675
17.3827
15.5405
15.5356
15.5327
15.5356
15.5405
13.7082
13.7066
13.7056
13.7066
13.7082
11.8792
11.8787
11.8784
11.8787
11.8792
10.0512
10.0511
10.051
10.0511
10.0512
8.22362
8.22356
8.22353
8.22356
8.22362
6.39611
6.39609
6.39608
6.39609
6.39611
4.56864
4.56864
4.56863
4.56863
4.56864
2.74118
2.74118
2.74118
2.74118
2.74118
0.913727
0.913727
0.913726
0.913726
0.913727
97.6908
94.7686
92.7294
90.7654
90.0689
90.7654
92.7294
94.7686
97.6908
96.1474
93.0197
91.1463
89.3802
88.7699
89.3802
91.1463
93.0197
96.1474
89.8921
88.7836
87.6791
86.6938
86.3268
86.6938
87.6791
88.7836
89.8921
84.999
84.5393
83.9586
83.4518
83.2566
83.4518
83.9586
84.5393
84.999
80.747
80.5372
80.2424
79.9864
79.8865
79.9864
80.2424
80.5372
80.747
76.8059
76.7051
76.5568
76.4278
76.3772
76.4278
76.5568
76.7051
76.8059
73.0179
72.9682
72.8935
72.8283
72.8027
72.8283
72.8935
72.9682
73.0179
69.3064
69.2814
69.2434
69.2102
69.197
69.2102
69.2434
69.2814
69.3064
65.6336
65.6205
65.6006
65.5829
65.576
65.5829
65.6006
65.6205
65.6336
61.9811
61.9736
61.9616
61.9508
61.9464
61.9508
61.9616
61.9736
61.9811
58.3413
58.3353
58.325
58.3146
58.3101
58.3146
58.325
58.3353
58.3413
54.7134
54.7057
54.6904
54.6728
54.6643
54.6728
54.6904
54.7057
54.7134
51.1045
51.0913
51.0603
51.0196
50.9976
51.0196
51.0603
51.0913
51.1045
47.5365
47.5126
47.4446
47.3427
47.2791
47.3427
47.4446
47.5127
47.5366
44.062
44.0222
43.8774
43.6247
43.4316
43.6247
43.8774
44.0222
44.062
40.7971
40.7418
40.4625
39.8821
39.2969
39.8821
40.4626
40.7418
40.7971
37.9684
37.9093
37.4729
36.3892
34.8371
36.3892
37.4729
37.9093
37.9684
35.8907
35.8315
35.4023
34.3461
32.86
34.3461
35.4023
35.8315
35.8907
34.5478
34.4933
34.2222
33.6628
33.1056
33.6628
34.2222
34.4933
34.5478
33.627
33.5884
33.4489
33.2066
33.0228
33.2066
33.4489
33.5884
33.627
32.908
32.8853
32.8206
32.7236
32.6632
32.7236
32.8206
32.8853
32.908
32.2781
32.2663
32.238
32.2005
32.18
32.2005
32.238
32.2663
32.2781
31.6859
31.6805
31.6689
31.6547
31.6477
31.6547
31.6689
31.6805
31.6859
31.1089
31.1071
31.1032
31.0986
31.0964
31.0986
31.1032
31.1071
31.1089
30.5373
30.5378
30.5382
30.5381
30.538
30.5381
30.5382
30.5378
30.5373
29.966
29.9686
29.9726
29.9759
29.9772
29.9759
29.9726
29.9686
29.966
29.3912
29.3969
29.4056
29.413
29.4159
29.413
29.4056
29.3969
29.3912
28.8086
28.819
28.8354
28.8492
28.8544
28.8492
28.8354
28.819
28.8086
28.2116
28.2291
28.2584
28.2816
28.29
28.2816
28.2584
28.2291
28.2116
27.5909
27.6156
27.664
27.6973
27.7084
27.6973
27.664
27.6156
27.5909
26.9381
26.9543
27.0142
27.0402
27.0463
27.0402
27.0142
26.9543
26.9381
26.2658
26.2058
26.1258
26.0514
26.0232
26.0514
26.1258
26.2058
26.2658
25.6781
25.4977
25.1671
24.9416
24.8652
24.9416
25.167
25.4976
25.6781
25.3386
25.0897
24.6368
24.3563
24.2647
24.3563
24.6368
25.0897
25.3386
99.0202
97.6908
96.2082
92.1428
90.9796
92.1428
96.2082
97.6908
99.0202
97.7537
96.1474
94.6988
90.6244
89.564
90.6244
94.6988
96.1474
97.7537
90.7385
89.8921
88.7995
87.3426
86.8215
87.3426
88.7995
89.8921
90.7385
85.4233
84.999
84.3933
83.7735
83.5318
83.7735
84.3933
84.999
85.4233
80.9567
80.747
80.4361
80.148
80.0339
80.148
80.4361
80.747
80.9567
76.9095
76.8059
76.6498
76.5103
76.455
76.5103
76.6498
76.8059
76.9095
73.0694
73.0179
72.9397
72.8707
72.8434
72.8707
72.9397
73.0179
73.0694
69.3324
69.3064
69.2668
69.2319
69.2181
69.2319
69.2668
69.3064
69.3324
65.6474
65.6336
65.6124
65.5936
65.5862
65.5936
65.6124
65.6336
65.6474
61.9899
61.9811
61.9673
61.9548
61.9497
61.9548
61.9673
61.9811
61.9899
58.35
58.3413
58.3268
58.3126
58.3064
58.3126
58.3268
58.3413
58.35
54.7276
54.7134
54.6877
54.6601
54.6472
54.6602
54.6877
54.7134
54.7276
51.1336
51.1045
51.0477
50.9805
50.9448
50.9805
51.0478
51.1045
51.1336
47.5979
47.5365
47.4057
47.2304
47.118
47.2304
47.4057
47.5366
47.5979
44.1848
44.062
43.7692
43.3051
42.9048
43.3051
43.7692
44.062
44.1848
41.0175
40.7971
40.1959
38.9964
37.3634
38.9964
40.1959
40.7971
41.0175
38.2908
37.9684
36.954
34.2354
26.5663
34.2354
36.954
37.9684
38.2908
36.2087
35.8907
34.8969
32.2719
25.0664
32.2719
34.8969
35.8907
36.2087
34.7625
34.5478
33.9655
32.8153
31.2756
32.8153
33.9655
34.5478
34.7626
33.7458
33.627
33.3451
32.901
32.522
32.901
33.3451
33.627
33.7458
32.9667
32.908
32.7829
32.6157
32.5091
32.6157
32.7829
32.908
32.9667
32.3051
32.2781
32.2251
32.1621
32.1285
32.1621
32.2251
32.2781
32.3051
31.6975
31.6859
31.6643
31.6406
31.6292
31.6406
31.6643
31.6859
31.6975
31.1134
31.1089
31.101
31.0926
31.0888
31.0926
31.101
31.1089
31.1134
30.5381
30.5373
30.5358
30.5341
30.5333
30.5341
30.5358
30.5373
30.5381
29.9643
29.966
29.9685
29.9706
29.9714
29.9706
29.9685
29.966
29.9643
29.3871
29.3912
29.3976
29.4031
29.4052
29.4031
29.3976
29.3912
29.3871
28.8015
28.8086
28.8197
28.8291
28.8327
28.8291
28.8197
28.8086
28.8015
28.2016
28.2116
28.2276
28.2408
28.2456
28.2408
28.2276
28.2116
28.2016
27.5818
27.5909
27.6077
27.6199
27.624
27.6199
27.6077
27.5909
27.5818
26.9436
26.9381
26.936
26.9297
26.9263
26.9297
26.936
26.9381
26.9436
26.3164
26.2658
26.1903
26.1261
26.1016
26.1261
26.1903
26.2658
26.3164
25.7905
25.6781
25.4981
25.3575
25.3065
25.3575
25.4981
25.6781
25.7905
25.4892
25.3386
25.0973
24.9154
24.8505
24.9154
25.0972
25.3386
25.4892
)
;

boundaryField
{
    injectionXMinus
    {
        type            fixedValue;
        value           uniform 10;
    }
    injectionXPlus
    {
        type            fixedValue;
        value           uniform 10;
    }
    injectionYMinus
    {
        type            fixedValue;
        value           uniform 10;
    }
    injectionYPlus
    {
        type            fixedValue;
        value           uniform 10;
    }
    inletXMinus
    {
        type            fixedValue;
        value           uniform 100;
    }
    inletXPlus
    {
        type            fixedValue;
        value           uniform 100;
    }
    inletYMinus
    {
        type            fixedValue;
        value           uniform 100;
    }
    inletYPlus
    {
        type            fixedValue;
        value           uniform 100;
    }
    outlet
    {
        type            fixedValue;
        value           uniform 0;
    }
    valve
    {
        type            zeroGradient;
    }
    walls
    {
        type            zeroGradient;
    }
}


// ************************************************************************* //
