/*--------------------------------*- C++ -*----------------------------------*\
  =========                 |
  \\      /  F ield         | OpenFOAM: The Open Source CFD Toolbox
   \\    /   O peration     | Website:  https://openfoam.org
    \\  /    A nd           | Version:  6
     \\/     M anipulation  |
\*---------------------------------------------------------------------------*/
FoamFile
{
    version     2.0;
    format      ascii;
    class       surfaceScalarField;
    location    "0";
    object      phi;
}
// * * * * * * * * * * * * * * * * * * * * * * * * * * * * * * * * * * * * * //

dimensions      [0 3 -1 0 0 0 0]; // [kg m s K kg-mol cd] - m^3/s

internalField   nonuniform List<scalar> 
8239
(
0.00702973
0.00594055
0.00702972
0.00575519
0.00480973
0.00646479
0.00669835
0.00377701
0.00527981
0.00188827
0.00272453
0.00208553
-0.00188829
0.00239235
0.0013842
-0.00669837
0.00272453
0.00208553
-0.0057552
0.00377701
0.00527981
-0.00702973
0.00480972
0.00646479
0.00594054
0.00702972
0.0058989
0.0141427
0.0058989
0.00472247
0.0105419
0.0054442
0.00564587
0.00837346
0.00448012
0.00155608
0.00508428
0.00173001
-0.00155611
0.00434897
0.00115554
-0.0056459
0.00508428
0.00173001
-0.00472249
0.00837346
0.00448012
-0.00589891
0.0105419
0.0054442
0.0141427
0.00589889
0.0022981
0.00954651
0.00229809
0.00255401
0.008223
0.00206299
0.00235669
0.00693424
0.0016365
0.000820777
0.00566559
0.000954577
-0.000820805
0.00525182
0.000738701
-0.00235672
0.00566558
0.000954577
-0.00255402
0.00693424
0.0016365
-0.0022981
0.00822299
0.00206299
0.00954651
0.00229809
0.000974583
0.00759733
0.000974578
0.00126525
0.00706068
0.000871611
0.00108803
0.00641012
0.000701315
0.000407016
0.00584525
0.000501326
-0.000407045
0.00563889
0.000426968
-0.00108806
0.00584525
0.000501326
-0.00126527
0.00641012
0.000701315
-0.000974588
0.00706068
0.000871611
0.00759733
0.000974574
0.000437928
0.00672146
0.000437923
0.000614694
0.00648804
0.000395834
0.000523163
0.00617221
0.000329406
0.00020066
0.00590491
0.000262806
-0.000200689
0.0058035
0.000236709
-0.000523189
0.00590491
0.000262806
-0.000614713
0.00617221
0.000329406
-0.000437934
0.00648804
0.000395833
0.00672146
0.00043792
0.00020451
0.00631243
0.000204505
0.000298864
0.00620586
0.000187799
0.000255865
0.00605319
0.000161995
9.92478e-05
0.00592349
0.000138012
-9.92778e-05
0.0058735
0.000128506
-0.000255891
0.00592349
0.000138012
-0.000298883
0.00605319
0.000161995
-0.000204516
0.00620586
0.000187799
0.00631243
0.000204502
9.79397e-05
0.00611653
9.79352e-05
0.000146194
0.00606616
9.14066e-05
0.000126171
0.00599177
8.14118e-05
4.92519e-05
0.00592795
7.24354e-05
-4.92819e-05
0.00590313
6.88791e-05
-0.000126197
0.00592795
7.24355e-05
-0.000146213
0.00599177
8.1412e-05
-9.79458e-05
0.00606616
9.14064e-05
0.00611653
9.79326e-05
4.75695e-05
0.00602138
4.75654e-05
7.18002e-05
0.00599681
4.50966e-05
6.23504e-05
0.00595986
4.13304e-05
2.44292e-05
0.00592785
3.79978e-05
-2.4459e-05
0.00591531
3.66806e-05
-6.23766e-05
0.00592785
3.79979e-05
-7.18192e-05
0.00595986
4.13305e-05
-4.75757e-05
0.00599681
4.50964e-05
0.00602138
4.75628e-05
2.29941e-05
0.00597538
2.29904e-05
3.48569e-05
0.00596267
2.22453e-05
3.03357e-05
0.00594324
2.11145e-05
1.18923e-05
0.00592614
2.01246e-05
-1.19219e-05
0.00591937
1.97362e-05
-3.03617e-05
0.00592614
2.01248e-05
-3.48758e-05
0.00594324
2.11148e-05
-2.30005e-05
0.00596267
2.22452e-05
0.00597538
2.29882e-05
1.02827e-05
0.0059548
1.02794e-05
1.54322e-05
0.00594695
1.05457e-05
1.32348e-05
0.00593445
1.09692e-05
5.11653e-06
0.00592287
1.13659e-05
-5.14552e-06
0.00591807
1.15347e-05
-1.32602e-05
0.00592287
1.1366e-05
-1.54506e-05
0.00593445
1.09694e-05
-1.0289e-05
0.00594695
1.05456e-05
0.0059548
1.02773e-05
2.42721e-06
0.00594993
2.42438e-06
2.9341e-06
0.00594249
3.92582e-06
1.65965e-06
0.00592942
6.27752e-06
3.17501e-07
0.00591574
8.45589e-06
-3.45802e-07
0.00590934
9.38041e-06
-1.68449e-06
0.00591574
8.45604e-06
-2.95224e-06
0.00592942
6.27779e-06
-2.43367e-06
0.00594249
3.92591e-06
0.00594994
2.4227e-06
-5.01991e-06
0.00595996
-5.02226e-06
-1.01308e-05
0.00594855
-9.77589e-07
-1.20246e-05
0.00592587
5.42638e-06
-6.0831e-06
0.0058982
1.15765e-05
6.05571e-06
0.00588282
1.4362e-05
1.20006e-05
0.0058982
1.15766e-05
1.01134e-05
0.00592587
5.42654e-06
5.01366e-06
0.00594856
-9.77677e-07
0.00595997
-5.02395e-06
-1.64299e-05
0.00599281
-1.64317e-05
-3.28139e-05
0.00597138
-6.46867e-06
-3.96928e-05
0.00592308
9.64998e-06
-2.14648e-05
0.0058537
2.62608e-05
2.14384e-05
0.00580502
3.48771e-05
3.96697e-05
0.0058537
2.6261e-05
3.27971e-05
0.00592308
9.65028e-06
1.64235e-05
0.00597139
-6.46848e-06
0.00599282
-1.64329e-05
-3.7857e-05
0.00606852
-3.78584e-05
-8.11178e-05
0.00602899
-1.43574e-05
-0.000109077
0.00592595
2.50771e-05
-7.01362e-05
0.00574371
7.10345e-05
7.01111e-05
0.00556327
0.000101495
0.000109055
0.00574371
7.10346e-05
8.1102e-05
0.00592595
2.50772e-05
3.7851e-05
0.00602899
-1.43574e-05
0.00606852
-3.78596e-05
-7.73885e-05
0.00622328
-7.73893e-05
-0.000184155
0.00616095
-2.5212e-05
-0.000291318
0.00596543
6.76654e-05
-0.000250573
0.00550321
0.000199736
0.000250549
0.00473358
0.000328552
0.000291297
0.00550321
0.000199736
0.00018414
0.00596543
6.76658e-05
7.73825e-05
0.00616095
-2.52117e-05
0.00622329
-7.739e-05
-0.000139725
0.00650273
-0.000139726
-0.000379672
0.00643679
-3.59134e-05
-0.000753535
0.00617302
0.000166258
-0.0010202
0.00521783
0.000552038
0.00102018
0.00149217
0.00120103
0.000753516
0.00521783
0.000552038
0.000379658
0.00617303
0.000166258
0.00013972
0.0064368
-3.59133e-05
0.00650273
-0.000139726
-0.000205657
0.00691403
-0.000205657
-0.000643442
0.00691387
-3.93013e-05
-0.00170873
0.00691362
0.000324684
-0.00474587
0.0069134
0.00134156
0.00474585
0.00691331
0.00508714
0.00170871
0.0069134
0.00134156
0.000643429
0.00691362
0.000324685
0.000205652
0.00691387
-3.93009e-05
0.00691404
-0.000205657
-0.000205822
0.00732567
-0.000205821
-0.000643693
0.0073912
-3.94671e-05
-0.00170895
0.00765435
0.000324515
-0.00474595
0.00860901
0.00134139
0.00474593
0.0123345
0.00508696
0.00170893
0.00860901
0.00134139
0.000643681
0.00765436
0.000324515
0.000205817
0.0073912
-3.94669e-05
0.00732568
-0.000205821
-0.000140293
0.00760625
-0.000140292
-0.000380539
0.00766793
-3.64877e-05
-0.000754297
0.00786243
0.00016567
-0.0010205
0.00832376
0.00055144
0.00102048
0.00909304
0.00120043
0.000754282
0.00832377
0.00055144
0.000380529
0.00786244
0.000165671
0.000140288
0.00766793
-3.64872e-05
0.00760626
-0.000140291
-7.86165e-05
0.00776348
-7.86146e-05
-0.000186032
0.0078018
-2.64593e-05
-0.000292966
0.00790298
6.63829e-05
-0.00025122
0.0080836
0.000198423
0.000251206
0.00826339
0.000327226
0.000292954
0.0080836
0.000198423
0.000186023
0.00790299
6.63831e-05
7.86123e-05
0.0078018
-2.64591e-05
0.00776348
-7.86143e-05
-4.02964e-05
0.00784406
-4.02939e-05
-8.48478e-05
0.0078632
-1.6851e-05
-0.000112353
0.00790799
2.24933e-05
-7.1425e-05
0.0079743
6.83714e-05
7.14132e-05
0.00802175
9.88007e-05
0.000112343
0.0079743
6.83715e-05
8.48404e-05
0.007908
2.24937e-05
4.02924e-05
0.0078632
-1.68504e-05
0.00784407
-4.0293e-05
-2.11632e-05
0.00788639
-2.11601e-05
-4.00535e-05
0.00789344
-1.13463e-05
-4.60502e-05
0.00790945
4.54181e-06
-2.39682e-05
0.00793127
2.09505e-05
2.3959e-05
0.00794434
2.94872e-05
4.60423e-05
0.00793127
2.09506e-05
4.0048e-05
0.00790946
4.54201e-06
2.116e-05
0.00789345
-1.13459e-05
0.0078864
-2.11592e-05
-1.41144e-05
0.00791461
-1.41106e-05
-2.40412e-05
0.00791382
-1.04484e-05
-2.42342e-05
0.00791428
-4.63199e-06
-1.08926e-05
0.00791693
1.00411e-06
1.08859e-05
0.00791898
3.58772e-06
2.42285e-05
0.00791693
1.00429e-06
2.4037e-05
0.00791428
-4.6316e-06
1.41114e-05
0.00791382
-1.04477e-05
0.00791462
-1.41091e-05
-1.49119e-05
0.00794444
-1.49074e-05
-2.3579e-05
0.00793688
-1.43822e-05
-2.15882e-05
0.00792583
-1.35291e-05
-8.83679e-06
0.00791684
-1.26558e-05
8.83288e-06
0.00791356
-1.22421e-05
2.1585e-05
0.00791684
-1.26557e-05
2.35768e-05
0.00792583
-1.35288e-05
1.49097e-05
0.00793688
-1.43817e-05
0.00794445
-1.4906e-05
-2.24744e-05
0.00798938
-2.24693e-05
-3.46284e-05
0.00797373
-2.4689e-05
-3.05757e-05
0.00794987
-2.80894e-05
-1.21124e-05
0.00792938
-3.0999e-05
1.21112e-05
0.00792146
-3.21155e-05
3.05748e-05
0.00792939
-3.09988e-05
3.46278e-05
0.00794988
-2.8089e-05
2.24725e-05
0.00797374
-2.46882e-05
0.00798939
-2.24673e-05
-3.81315e-05
0.00806565
-3.81258e-05
-5.84848e-05
0.00803927
-4.51709e-05
-5.10636e-05
0.00799853
-5.60681e-05
-2.00316e-05
0.00796376
-6.53922e-05
2.00333e-05
0.0079504
-6.89825e-05
5.10653e-05
0.00796376
-6.53921e-05
5.84862e-05
0.00799854
-5.60679e-05
3.81305e-05
0.00803927
-4.51703e-05
0.00806566
-3.81239e-05
-6.45143e-05
0.00819468
-6.45081e-05
-9.92198e-05
0.00815676
-8.27681e-05
-8.58378e-05
0.00809665
-0.000111482
-3.33933e-05
0.00804692
-0.000135591
3.33978e-05
0.00802835
-0.000144729
8.58419e-05
0.00804692
-0.000135591
9.92227e-05
0.00809665
-0.000111482
6.45135e-05
0.00815676
-8.27672e-05
0.00819469
-6.45056e-05
-0.000102437
0.00839956
-0.000102431
-0.000159329
0.00836119
-0.000147521
-0.000135566
0.00829395
-0.000221044
-5.19635e-05
0.00824387
-0.000280539
5.1971e-05
0.00822689
-0.000302461
0.000135572
0.00824388
-0.000280539
0.000159334
0.00829395
-0.000221043
0.000102437
0.0083612
-0.00014752
0.00839956
-0.000102428
-0.000140804
0.00868117
-0.000140797
-0.000226574
0.00869302
-0.000246041
-0.000185636
0.00868422
-0.000431194
-6.89442e-05
0.00869829
-0.000571091
6.89545e-05
0.00870934
-0.00062033
0.000185645
0.0086983
-0.000571091
0.00022658
0.00868423
-0.000431193
0.000140804
0.00869303
-0.000246039
0.00868117
-0.000140794
-0.00012895
0.00893908
-0.000128942
-0.000235375
0.00914449
-0.000345012
-0.000171565
0.0094092
-0.000788762
-5.78929e-05
0.00966879
-0.00108414
5.79057e-05
0.00977457
-0.001181
0.000171576
0.00966879
-0.00108414
0.000235383
0.0094092
-0.000788761
0.000128949
0.0091445
-0.00034501
0.00893908
-0.000128938
7.64657e-05
0.00878615
7.6473e-05
2.93343e-05
0.00941886
-0.000227205
8.8025e-05
0.0104458
-0.00109529
4.78912e-05
0.0112572
-0.00154828
-4.78762e-05
0.0115522
-0.00168182
-8.8012e-05
0.0112572
-0.00154828
-2.93259e-05
0.0104458
-0.00109528
-7.64675e-05
0.00941886
-0.000227203
0.00878615
7.64784e-05
0.000709175
0.00736781
0.000709183
0.0010563
0.00823245
0.000839334
0.000899435
0.0096981
0.000904623
0.00034284
0.0107669
0.00104698
-0.000342824
0.011139
0.0010989
-0.000899421
0.0107669
0.00104698
-0.00105629
0.0096981
0.000904625
-0.000709177
0.00823245
0.000839337
0.00736781
0.000709188
0.00157381
0.00422022
0.00157381
0.00252196
0.00475653
0.00252781
0.00196822
0.00561515
0.00463673
0.000714926
0.00619361
0.00582661
-0.00071491
0.00638755
0.00618129
-0.00196821
0.00619361
0.00582661
-0.00252195
0.00561515
0.00463673
-0.00157381
0.00475653
0.00252781
0.00422022
0.00157382
0.00211012
0.00211013
0.00338058
0.00348611
0.00254668
0.00644907
0.000908864
0.00783146
-0.000908849
0.00820529
-0.00254667
0.00783146
-0.00338057
0.00644907
-0.00211012
0.00348611
0.00211013
0.00646479
0.00480973
0.00575518
0.00457021
0.00378914
0.0045702
0.00350407
0.00297733
0.00336858
0.00118694
0.00236902
0.00203362
-0.00118696
0.00216369
0.00159438
-0.0035041
0.00236902
0.00203362
-0.00457022
0.00297732
0.00336858
-0.0064648
0.00378913
0.0045702
0.00480972
0.00575518
0.0054442
0.0105419
0.00472246
0.0037584
0.00716071
0.00375839
0.00289576
0.00552983
0.00279021
0.000981604
0.00430884
0.00170432
-0.000981631
0.00393214
0.00135029
-0.00289579
0.00430884
0.00170432
-0.00375841
0.00552983
0.00279021
-0.00544421
0.00716071
0.00375839
0.0105419
0.00472246
0.00206299
0.008223
0.002554
0.00212752
0.00703162
0.00212751
0.00167477
0.00599906
0.00161998
0.0006049
0.00521233
0.00112092
-0.000604929
0.00494009
0.000940538
-0.0016748
0.00521233
0.00112092
-0.00212754
0.00599906
0.00161998
-0.002063
0.00703162
0.00212751
0.00822299
0.002554
0.000871617
0.00706068
0.00126524
0.00109496
0.0065849
0.00109495
0.000888044
0.00603821
0.000869044
0.000332658
0.00560673
0.000662283
-0.000332687
0.00544863
0.00058374
-0.00088807
0.00560673
0.000662285
-0.00109498
0.00603821
0.000869047
-0.000871625
0.0065849
0.00109495
0.00706068
0.00126525
0.000395839
0.00648804
0.000614685
0.000548266
0.00628001
0.000548256
0.000456563
0.0060048
0.000454477
0.000174562
0.00578012
0.000371379
-0.000174592
0.0056953
0.00033916
-0.000456589
0.00578012
0.000371381
-0.000548286
0.0060048
0.00045448
-0.000395847
0.00628001
0.00054826
0.00648804
0.000614688
0.000187804
0.00620586
0.000298855
0.000273059
0.00610946
0.000273049
0.000231882
0.0059726
0.000235332
8.97421e-05
0.00585792
0.000202321
-8.9772e-05
0.00581387
0.000189419
-0.000231908
0.00585792
0.000202323
-0.000273078
0.0059726
0.000235335
-0.000187813
0.00610946
0.000273053
0.00620586
0.000298858
9.14111e-05
0.00606616
0.000146185
0.000136199
0.00601985
0.00013619
0.000117194
0.00595169
0.000121297
4.56956e-05
0.00589351
0.000108306
-4.57255e-05
0.00587093
0.000103211
-0.000117221
0.00589351
0.000108308
-0.000136219
0.00595169
0.0001213
-9.14197e-05
0.00601985
0.000136194
0.00606616
0.000146189
4.51007e-05
0.00599681
7.17925e-05
6.80339e-05
0.00597396
6.80259e-05
5.90178e-05
0.00593965
6.23554e-05
2.3112e-05
0.00590998
5.74101e-05
-2.31418e-05
0.00589837
5.54681e-05
-5.9044e-05
0.00590998
5.74117e-05
-6.80533e-05
0.00593965
6.23584e-05
-4.51093e-05
0.00597396
6.80297e-05
0.00599681
7.17961e-05
2.2249e-05
0.00596267
3.485e-05
3.37261e-05
0.00595097
3.37189e-05
2.93458e-05
0.0059331
3.20119e-05
1.15039e-05
0.00591738
3.0528e-05
-1.15333e-05
0.00591117
2.99478e-05
-2.93717e-05
0.00591738
3.05296e-05
-3.37454e-05
0.0059331
3.20148e-05
-2.22575e-05
0.00595097
3.37228e-05
0.00596267
3.48538e-05
1.0549e-05
0.00594695
1.54261e-05
1.58557e-05
0.00594033
1.58493e-05
1.36315e-05
0.00592976
1.65064e-05
5.28535e-06
0.00591996
1.71065e-05
-5.31423e-06
0.00591592
1.7356e-05
-1.36569e-05
0.00591996
1.7108e-05
-1.58744e-05
0.00592976
1.65094e-05
-1.05573e-05
0.00594033
1.58531e-05
0.00594695
1.54297e-05
3.92865e-06
0.00594249
2.92889e-06
5.28581e-06
0.00593758
5.28039e-06
3.83802e-06
0.00592857
8.88294e-06
1.24202e-06
0.00591886
1.21307e-05
-1.27018e-06
0.00591432
1.34701e-05
-3.86273e-06
0.00591886
1.21322e-05
-5.30412e-06
0.00592857
8.88576e-06
-3.93687e-06
0.00593759
5.28413e-06
0.00594249
2.93263e-06
-9.75241e-07
0.00594855
-1.01351e-05
-3.72681e-06
0.00594306
-3.73127e-06
-5.87453e-06
0.00593009
6.02783e-06
-3.29757e-06
0.00591289
1.49501e-05
3.2703e-06
0.00590334
1.87584e-05
5.8506e-06
0.00591289
1.49516e-05
3.7092e-06
0.0059301
6.03058e-06
9.6739e-07
0.00594307
-3.72776e-06
0.00594856
-1.01316e-05
-6.46681e-06
0.00597138
-3.28173e-05
-1.66953e-05
0.0059635
-1.66987e-05
-2.30819e-05
0.00593851
7.60052e-06
-1.28485e-05
0.00589847
3.04237e-05
1.28223e-05
0.00587164
4.08813e-05
2.3059e-05
0.00589847
3.04251e-05
1.66783e-05
0.00593851
7.60314e-06
6.4591e-06
0.0059635
-1.66953e-05
0.00597139
-3.28137e-05
-1.4356e-05
0.00602899
-8.11202e-05
-4.16834e-05
0.00601813
-4.16859e-05
-6.31197e-05
0.00596854
1.64669e-05
-3.96756e-05
0.00587241
7.36355e-05
3.96507e-05
0.00579033
0.00010347
6.30979e-05
0.00587241
7.36368e-05
4.16673e-05
0.00596854
1.64694e-05
1.43488e-05
0.00601813
-4.16827e-05
0.00602899
-8.1117e-05
-2.52111e-05
0.00616095
-0.000184157
-9.1278e-05
0.00615025
-9.12794e-05
-0.000159247
0.00606402
4.01313e-05
-0.000121757
0.00585551
0.000179124
0.000121734
0.00560606
0.000269311
0.000159227
0.00585552
0.000179125
9.12628e-05
0.00606402
4.01336e-05
2.52041e-05
0.00615025
-9.12763e-05
0.00616095
-0.000184154
-3.59131e-05
0.0064368
-0.000379673
-0.000177501
0.00643341
-0.000177501
-0.000367755
0.00633145
8.90695e-05
-0.000371209
0.00600735
0.000403642
0.000371187
0.00537827
0.000686419
0.000367735
0.00600736
0.000403644
0.000177487
0.00633145
8.90717e-05
3.59067e-05
0.00643341
-0.000177499
0.0064368
-0.00037967
-3.93015e-05
0.00691387
-0.000643441
-0.000279456
0.0069137
-0.000279456
-0.000691852
0.00691345
0.000155071
-0.00100029
0.00691322
0.000744121
0.00100027
0.00691314
0.0015517
0.000691834
0.00691323
0.000744122
0.000279443
0.00691345
0.000155073
3.92954e-05
0.00691371
-0.000279453
0.00691387
-0.000643438
-3.94678e-05
0.0073912
-0.000643691
-0.000279711
0.00739418
-0.000279709
-0.000692075
0.00749551
0.000154813
-0.00100038
0.00781906
0.000743858
0.00100036
0.00844792
0.00155143
0.000692059
0.00781906
0.000743859
0.000279699
0.00749551
0.000154815
3.94625e-05
0.00739418
-0.000279707
0.00739121
-0.000643689
-3.64891e-05
0.00766793
-0.000380537
-0.000178381
0.00767795
-0.000178379
-0.000368527
0.00776315
8.81724e-05
-0.000371512
0.00797075
0.000402727
0.000371496
0.00821984
0.000685497
0.000368513
0.00797075
0.000402728
0.000178371
0.00776315
8.8174e-05
3.64841e-05
0.00767796
-0.000178376
0.00766793
-0.000380534
-2.64613e-05
0.0078018
-0.000186028
-9.31897e-05
0.00781141
-9.31858e-05
-0.000160926
0.00785909
3.81709e-05
-0.000122417
0.00795354
0.000177116
0.000122403
0.00803497
0.000267284
0.000160914
0.00795355
0.000177117
9.31811e-05
0.0078591
3.81723e-05
2.64571e-05
0.00781141
-9.3184e-05
0.00780181
-0.000186026
-1.68535e-05
0.0078632
-8.48428e-05
-4.55036e-05
0.0078687
-4.54984e-05
-6.64748e-05
0.00789004
1.25158e-05
-4.09957e-05
0.00792687
6.95626e-05
4.09841e-05
0.00795244
9.93493e-05
6.64648e-05
0.00792688
6.95632e-05
4.54963e-05
0.00789005
1.2517e-05
1.68498e-05
0.00786871
-4.54968e-05
0.00786321
-8.48409e-05
-1.13495e-05
0.00789344
-4.00473e-05
-2.41655e-05
0.00789434
-2.4159e-05
-2.96415e-05
0.00790028
-2.12965e-07
-1.54315e-05
0.00791132
2.23004e-05
1.54224e-05
0.00791844
3.26357e-05
2.96337e-05
0.00791132
2.23009e-05
2.416e-05
0.00790028
-2.12032e-07
1.13467e-05
0.00789434
-2.41578e-05
0.00789345
-4.00459e-05
-1.04522e-05
0.00791382
-2.40337e-05
-1.82248e-05
0.00790988
-1.82171e-05
-1.85981e-05
0.00790538
-9.35808e-06
-8.30898e-06
0.00790327
-1.22316e-06
8.30251e-06
0.00790315
2.27541e-06
1.85926e-05
0.00790327
-1.2228e-06
1.82209e-05
0.00790539
-9.35741e-06
1.045e-05
0.00790989
-1.82161e-05
0.00791383
-2.40324e-05
-1.43866e-05
0.00793688
-2.35702e-05
-2.27259e-05
0.00792657
-2.27168e-05
-2.0715e-05
0.00791127
-2.1412e-05
-8.42307e-06
0.0078985
-2.01657e-05
8.41928e-06
0.00789369
-1.96101e-05
2.07119e-05
0.0078985
-2.01655e-05
2.27239e-05
0.00791127
-2.14116e-05
1.43854e-05
0.00792658
-2.27163e-05
0.00793688
-2.35694e-05
-2.46941e-05
0.00797373
-3.46185e-05
-3.80289e-05
0.00795325
-3.80186e-05
-3.34852e-05
0.00792189
-4.32476e-05
-1.32289e-05
0.00789499
-4.77371e-05
1.32279e-05
0.0078846
-4.94664e-05
3.34846e-05
0.00789499
-4.77371e-05
3.80286e-05
0.0079219
-4.32475e-05
2.46934e-05
0.00795325
-3.80183e-05
0.00797374
-3.46178e-05
-4.51765e-05
0.00803927
-5.84737e-05
-6.93821e-05
0.00800167
-6.93706e-05
-6.03877e-05
0.00794312
-8.62699e-05
-2.36219e-05
0.00789356
-0.000100708
2.36237e-05
0.00787465
-0.000106262
6.03895e-05
0.00789356
-0.000100708
6.93838e-05
0.00794312
-8.627e-05
4.51769e-05
0.00800168
-6.93708e-05
0.00803928
-5.84736e-05
-8.27743e-05
0.00815676
-9.92078e-05
-0.000127934
0.008092
-0.000127921
-0.000109947
0.00798708
-0.000173417
-4.2531e-05
0.00790197
-0.000211399
4.25357e-05
0.00787062
-0.000225742
0.000109951
0.00790197
-0.000211399
0.000127937
0.00798709
-0.000173417
8.27751e-05
0.00809201
-0.000127922
0.00815676
-9.92077e-05
-0.000147528
0.00836119
-0.000159317
-0.000232852
0.00826267
-0.000232839
-0.000195061
0.0080838
-0.00035552
-7.38854e-05
0.00795332
-0.00045304
7.38931e-05
0.00790903
-0.000488622
0.000195068
0.00795333
-0.00045304
0.000232857
0.0080838
-0.00035552
0.000147529
0.00826268
-0.000232839
0.0083612
-0.000159317
-0.000246048
0.00869302
-0.000226561
-0.000411727
0.00859405
-0.000411714
-0.000325533
0.00832665
-0.000760219
-0.000118183
0.00818524
-0.00101033
0.000118194
0.00814867
-0.00109633
0.000325543
0.00818524
-0.00101033
0.000411734
0.00832666
-0.00076022
0.000246049
0.00859406
-0.000411714
0.00869303
-0.000226561
-0.000345019
0.00914449
-0.000235362
-0.000679126
0.0092623
-0.000679112
-0.000466945
0.00910268
-0.00177693
-0.000154753
0.00920465
-0.00241571
0.000154766
0.00927376
-0.00261558
0.000466957
0.00920465
-0.00241571
0.000679134
0.00910268
-0.00177693
0.000345021
0.0092623
-0.000679111
0.0091445
-0.000235361
-0.000227213
0.00941886
2.93482e-05
-0.000838746
0.0104854
-0.000838731
-0.000364972
0.0124457
-0.00491208
-8.56412e-05
0.0138525
-0.00647542
8.56569e-05
0.0143329
-0.00691222
0.000364986
0.0138525
-0.00647542
0.000838756
0.0124457
-0.00491208
0.000227214
0.0104854
-0.000838729
0.00941886
2.93493e-05
0.000839327
0.00823245
0.00105631
0.00112159
0.00992092
0.00112161
0.00104179
0.0134302
0.000394769
0.0155465
-0.000394752
0.0162214
-0.00104177
0.0155465
-0.00112158
0.0134302
-0.000839326
0.00992092
0.00112161
0.00823244
0.00105631
0.0025278
0.00475653
0.00252197
0.00463087
0.00571483
0.00463089
0.00315811
0.0074275
0.0121122
0.00106961
0.00819846
0.0152632
-0.00106959
0.00841154
0.0161303
-0.00315809
0.00819846
0.0152632
-0.00463086
0.00742749
0.0121122
-0.0025278
0.00571483
0.00463088
0.00475653
0.00252197
0.00348611
0.00338059
0.00634354
0.00634355
0.00392907
0.0162911
0.00128269
0.0186763
-0.00128268
0.0191822
-0.00392906
0.0186763
-0.00634353
0.0162911
-0.0034861
0.00634354
0.00338058
0.00527981
0.00377701
0.00669834
0.00336859
0.00297733
0.00350406
0.00216911
0.00239895
0.00216909
0.000747701
0.00203972
0.00141527
-0.000747726
0.00191959
0.00117019
-0.00216913
0.00203972
0.00141528
-0.00336861
0.00239895
0.0021691
-0.00527982
0.00297732
0.00350406
0.00377701
0.00669834
0.00448013
0.00837346
0.00564586
0.00279022
0.00552983
0.00289575
0.00180988
0.0043596
0.00180986
0.000627574
0.00372544
0.00120087
-0.0006276
0.00352239
0.00100264
-0.0018099
0.00372544
0.00120087
-0.00279023
0.0043596
0.00180987
-0.00448013
0.00552983
0.00289576
0.00837345
0.00564586
0.0016365
0.00693424
0.00235668
0.00161999
0.00599906
0.00167476
0.00117571
0.00524813
0.0011757
0.000424523
0.0047537
0.000843805
-0.00042455
0.00458329
0.000728672
-0.00117573
0.0047537
0.000843807
-0.00162
0.00524813
0.0011757
-0.00163651
0.00599906
0.00167476
0.00693424
0.00235669
0.00070132
0.00641012
0.00108802
0.000869054
0.00603821
0.000888032
0.000681283
0.00562364
0.000681271
0.000254115
0.00531582
0.000527302
-0.000254142
0.00520405
0.000471212
-0.000681308
0.00531582
0.000527304
-0.000869073
0.00562364
0.000681275
-0.000701329
0.00603821
0.000888038
0.00641012
0.00108803
0.000329411
0.00617221
0.000523151
0.000454487
0.0060048
0.000456552
0.000373465
0.00578566
0.000373453
0.000142343
0.00561106
0.000307232
-0.000142371
0.00554556
0.00028234
-0.00037349
0.00561106
0.000307235
-0.000454506
0.00578566
0.000373458
-0.000329419
0.0060048
0.000456558
0.00617221
0.000523158
0.000161999
0.00605319
0.000255854
0.000235341
0.00597261
0.000231871
0.000198871
0.00585857
0.00019886
7.68397e-05
0.0057639
0.000171486
-7.6868e-05
0.00572766
0.000160997
-0.000198896
0.0057639
0.000171488
-0.00023536
0.00585857
0.000198864
-0.000162008
0.00597261
0.000231877
0.00605319
0.000255861
8.1416e-05
0.00599177
0.000126161
0.000121306
0.00595169
0.000117184
0.000104203
0.00589275
0.000104193
4.06009e-05
0.00584262
9.31673e-05
-4.06292e-05
0.00582318
8.88944e-05
-0.000104228
0.00584262
9.31697e-05
-0.000121325
0.00589275
0.000104198
-8.14247e-05
0.00595169
0.00011719
0.00599177
0.000126167
4.13342e-05
0.00595986
6.23413e-05
6.23634e-05
0.00593965
5.90084e-05
5.40725e-05
0.0059093
5.4063e-05
2.11701e-05
0.00588309
4.98108e-05
-2.11983e-05
0.00587285
4.81526e-05
-5.40973e-05
0.00588309
4.98132e-05
-6.2382e-05
0.0059093
5.40676e-05
-4.13429e-05
0.00593965
5.90145e-05
0.00595987
6.23478e-05
2.1118e-05
0.00594324
3.03276e-05
3.20191e-05
0.0059331
2.93374e-05
2.7862e-05
0.00591759
2.78535e-05
1.09236e-05
0.00590396
2.65726e-05
-1.09515e-05
0.00589857
2.60735e-05
-2.78864e-05
0.00590396
2.6575e-05
-3.20374e-05
0.00591759
2.7858e-05
-2.11266e-05
0.0059331
2.93434e-05
0.00594325
3.03341e-05
1.09723e-05
0.00593445
1.32277e-05
1.65128e-05
0.00592976
1.36242e-05
1.42315e-05
0.00592213
1.42242e-05
5.53487e-06
0.00591499
1.47569e-05
-5.56218e-06
0.00591203
1.49735e-05
-1.42556e-05
0.00591499
1.47592e-05
-1.65307e-05
0.00592213
1.42286e-05
-1.09807e-05
0.00592976
1.36301e-05
0.00593445
1.3234e-05
6.28015e-06
0.00592942
1.65368e-06
8.88835e-06
0.00592857
3.83188e-06
7.08575e-06
0.00592572
7.07955e-06
2.58141e-06
0.00592168
9.92303e-06
-2.60804e-06
0.00591961
1.10668e-05
-7.10916e-06
0.00592168
9.92532e-06
-8.90576e-06
0.00592572
7.08382e-06
-6.28837e-06
0.00592857
3.83758e-06
0.00592943
1.6599e-06
5.42856e-06
0.00592587
-1.20294e-05
6.03229e-06
0.0059301
-5.87948e-06
3.04777e-06
0.00593167
3.04278e-06
5.1074e-07
0.00592836
1.07879e-05
-5.36533e-07
0.00592546
1.39394e-05
-3.07043e-06
0.00592836
1.07901e-05
-6.04914e-06
0.00593167
3.04689e-06
-5.43648e-06
0.0059301
-5.87399e-06
0.00592588
-1.20235e-05
9.65171e-06
0.00592308
-3.96964e-05
7.60401e-06
0.00593851
-2.30856e-05
-2.58781e-07
0.00594737
-2.62548e-07
-2.39084e-06
0.00594168
1.92174e-05
2.36605e-06
0.00593423
2.73363e-05
2.37041e-07
0.00594168
1.92195e-05
-7.62011e-06
0.00594738
-2.58634e-07
-9.65935e-06
0.00593851
-2.30804e-05
0.00592309
-3.96907e-05
2.50783e-05
0.00592595
-0.00010908
1.64694e-05
0.00596854
-6.31222e-05
-5.95117e-06
0.0059922
-5.95368e-06
-9.8407e-06
0.0059779
4.12966e-05
9.81708e-06
0.00595617
6.18657e-05
5.93046e-06
0.0059779
4.12986e-05
-1.64847e-05
0.0059922
-5.94997e-06
-2.50855e-05
0.00596854
-6.31173e-05
0.00592595
-0.000109074
6.76662e-05
0.00596543
-0.000291319
4.01327e-05
0.00606402
-0.000159249
-2.02546e-05
0.00611296
-2.02558e-05
-3.15702e-05
0.00608003
8.82905e-05
3.15479e-05
0.00602317
0.000139178
2.02351e-05
0.00608003
8.82923e-05
-4.01471e-05
0.00611296
-2.02524e-05
-6.76731e-05
0.00606403
-0.000159244
0.00596544
-0.000291314
0.000166258
0.00617303
-0.000753535
8.90699e-05
0.00633145
-0.000367755
-5.31817e-05
0.00639745
-5.31817e-05
-8.8432e-05
0.00634783
0.000171085
8.84112e-05
0.00624355
0.000289191
5.31635e-05
0.00634783
0.000171087
-8.90833e-05
0.00639746
-5.31785e-05
-0.000166264
0.00633146
-0.00036775
0.00617303
-0.000753531
0.000324684
0.00691362
-0.00170873
0.000155071
0.00691345
-0.000691851
-0.000102803
0.00691319
-0.000102801
-0.000192715
0.00691296
0.000268895
0.000192696
0.00691287
0.000496955
0.000102786
0.00691296
0.000268897
-0.000155083
0.00691319
-0.000102798
-0.00032469
0.00691345
-0.000691847
0.00691362
-0.00170872
0.000324514
0.00765435
-0.00170895
0.000154811
0.00749551
-0.000692072
-0.000103031
0.00742887
-0.000103028
-0.000192805
0.00747793
0.000268665
0.000192787
0.00758199
0.000496723
0.000103015
0.00747793
0.000268666
-0.000154822
0.00742887
-0.000103025
-0.00032452
0.00749551
-0.000692069
0.00765436
-0.00170894
0.000165669
0.00786243
-0.000754293
8.81696e-05
0.00776315
-0.000368523
-5.39724e-05
0.00771314
-5.39683e-05
-8.87424e-05
0.00774513
0.000170283
8.87271e-05
0.00780163
0.000288383
5.3959e-05
0.00774514
0.000170284
-8.81793e-05
0.00771315
-5.3966e-05
-0.000165674
0.00776315
-0.00036852
0.00786244
-0.000754289
6.63811e-05
0.00790298
-0.00029296
3.8167e-05
0.00785909
-0.000160921
-2.1981e-05
0.00783344
-2.19755e-05
-3.22488e-05
0.00784599
8.65289e-05
3.22356e-05
0.00786703
0.0001374
2.19695e-05
0.00784599
8.65299e-05
-3.81752e-05
0.00783344
-2.19736e-05
-6.6385e-05
0.0078591
-0.000160918
0.00790299
-0.000292958
2.24909e-05
0.00790799
-0.000112346
1.25106e-05
0.00789004
-6.64678e-05
-9.42801e-06
0.00787731
-9.421e-06
-1.1209e-05
0.00787961
3.77222e-05
1.11981e-05
0.00788572
5.82487e-05
9.41853e-06
0.00787961
3.77231e-05
-1.25174e-05
0.00787732
-9.41943e-06
-2.24943e-05
0.00789005
-6.64658e-05
0.007908
-0.000112344
4.53885e-06
0.00790945
-4.60419e-05
-2.19387e-07
0.00790028
-2.9633e-05
-7.12817e-06
0.00789113
-7.11959e-06
-5.09619e-06
0.0078878
1.20886e-05
5.0876e-06
0.00788808
2.01e-05
7.1208e-06
0.0078878
1.20892e-05
2.14207e-07
0.00789114
-7.11839e-06
-4.54135e-06
0.00790029
-2.96314e-05
0.00790946
-4.60402e-05
-4.63555e-06
0.00791428
-2.42243e-05
-9.3658e-06
0.00790538
-1.85879e-05
-1.04631e-05
0.00789333
-1.04529e-05
-4.81041e-06
0.00788432
-3.39677e-06
4.8043e-06
0.00788127
-5.16694e-07
1.0458e-05
0.00788433
-3.39633e-06
9.36228e-06
0.00789333
-1.04521e-05
4.63371e-06
0.00790539
-1.85869e-05
0.00791429
-2.4223e-05
-1.35332e-05
0.00792583
-2.15768e-05
-2.1421e-05
0.00791127
-2.07032e-05
-1.94687e-05
0.00788943
-1.94568e-05
-7.86746e-06
0.00787092
-1.83584e-05
7.86391e-06
0.00786383
-1.78987e-05
1.94658e-05
0.00787093
-1.83581e-05
2.14192e-05
0.00788944
-1.94564e-05
1.35323e-05
0.00791127
-2.07027e-05
0.00792584
-2.15762e-05
-2.80941e-05
0.00794987
-3.05627e-05
-4.32579e-05
0.00792189
-3.34719e-05
-3.79748e-05
0.00787887
-3.79614e-05
-1.49582e-05
0.00784202
-4.18386e-05
1.49572e-05
0.0078278
-4.33394e-05
3.79742e-05
0.00784202
-4.18386e-05
4.32578e-05
0.00787888
-3.79614e-05
2.80939e-05
0.0079219
-3.3472e-05
0.00794988
-3.05626e-05
-5.60734e-05
0.00799853
-5.10493e-05
-8.62813e-05
0.00794312
-6.03729e-05
-7.48261e-05
0.00785597
-7.48112e-05
-2.91758e-05
0.00778287
-8.71929e-05
2.91775e-05
0.00775517
-9.19686e-05
7.48279e-05
0.00778287
-8.71931e-05
8.6283e-05
0.00785598
-7.48117e-05
5.60741e-05
0.00794313
-6.03736e-05
0.00799854
-5.10499e-05
-0.000111488
0.00809665
-8.58224e-05
-0.000173429
0.00798709
-0.000109931
-0.000147929
0.00780498
-0.000147913
-5.68743e-05
0.00766033
-0.000179897
5.68788e-05
0.00760774
-0.000192045
0.000147933
0.00766033
-0.000179898
0.000173433
0.00780499
-0.000147913
0.000111489
0.00798709
-0.000109932
0.00809666
-8.58234e-05
-0.00022105
0.00829395
-0.000135549
-0.000355533
0.0080838
-0.000195044
-0.000292581
0.0076791
-0.000292564
-0.000109468
0.00739603
-0.000371832
0.000109475
0.00730132
-0.000401127
0.000292588
0.00739603
-0.000371832
0.000355538
0.0076791
-0.000292565
0.000221052
0.0080838
-0.000195045
0.00829395
-0.000135551
-0.0004312
0.00868422
-0.00018562
-0.000760233
0.00832665
-0.000325516
-0.000575648
0.00730994
-0.00057563
-0.000204176
0.00677987
-0.00076562
0.000204187
0.00662942
-0.00083277
0.000575657
0.00677987
-0.000765621
0.00076024
0.00730995
-0.000575631
0.000431203
0.00832666
-0.000325518
0.00868423