/*--------------------------------*- C++ -*----------------------------------*\
  =========                 |
  \\      /  F ield         | OpenFOAM: The Open Source CFD Toolbox
   \\    /   O peration     | Website:  https://openfoam.org
    \\  /    A nd           | Version:  6
     \\/     M anipulation  |
\*---------------------------------------------------------------------------*/
FoamFile
{
    version     2.0;
    format      ascii;
    class       volScalarField;
    location    "0";
    object      Phi;
}
// * * * * * * * * * * * * * * * * * * * * * * * * * * * * * * * * * * * * * //

dimensions      [0 2 -1 0 0 0 0];

internalField   nonuniform List<scalar> 
3029
(
0.0504148
0.0509768
0.051604
0.053327
0.0538209
0.053327
0.051604
0.0509768
0.0504148
0.0509498
0.0516295
0.0522429
0.0539715
0.0544221
0.0539715
0.0522429
0.0516295
0.0509498
0.0539245
0.0542832
0.0547466
0.0553657
0.0555871
0.0553657
0.0547466
0.0542832
0.0539245
0.0561817
0.0563617
0.0566188
0.056882
0.0569847
0.056882
0.0566188
0.0563617
0.0561817
0.058079
0.058168
0.0583
0.0584223
0.0584708
0.0584223
0.0583
0.058168
0.058079
0.0597982
0.0598422
0.0599086
0.0599678
0.0599913
0.0599678
0.0599086
0.0598422
0.0597982
0.0614294
0.0614514
0.0614847
0.0615141
0.0615258
0.0615141
0.0614847
0.0614514
0.0614294
0.0630167
0.063028
0.0630451
0.0630602
0.0630662
0.0630602
0.0630451
0.063028
0.0630167
0.0645815
0.0645879
0.0645977
0.0646064
0.0646098
0.0646064
0.0645977
0.0645879
0.0645815
0.0661337
0.0661385
0.0661463
0.0661535
0.0661564
0.0661535
0.0661463
0.0661385
0.0661337
0.0676761
0.0676824
0.0676932
0.0677039
0.0677086
0.0677039
0.0676932
0.0676824
0.0676761
0.0692059
0.0692179
0.0692399
0.0692636
0.0692748
0.0692636
0.0692399
0.0692179
0.0692059
0.0707115
0.0707374
0.0707878
0.0708476
0.0708795
0.0708476
0.0707878
0.0707374
0.0707115
0.0721655
0.0722206
0.0723378
0.0724946
0.0725951
0.0724946
0.0723378
0.0722206
0.0721655
0.0735093
0.07362
0.0738827
0.0742979
0.0746548
0.0742979
0.0738827
0.0736199
0.0735093
0.0746319
0.0748308
0.0753709
0.076443
0.0778951
0.076443
0.0753709
0.0748307
0.0746319
0.0753567
0.075649
0.0765634
0.0789932
0.0857484
0.0789931
0.0765634
0.075649
0.0753567
0.0754972
0.0757891
0.0767022
0.0791256
0.0858495
0.0791256
0.0767022
0.0757891
0.0754972
0.0750538
0.0752523
0.0757912
0.07686
0.0783057
0.07686
0.0757912
0.0752523
0.0750537
0.0742133
0.0743237
0.0745859
0.0749998
0.0753552
0.0749998
0.0745859
0.0743237
0.0742133
0.073152
0.0732071
0.0733241
0.0734805
0.0735806
0.0734805
0.0733241
0.0732071
0.073152
0.0719807
0.0720067
0.0720572
0.072117
0.0721488
0.072117
0.0720572
0.0720067
0.0719807
0.0707575
0.0707698
0.0707921
0.0708161
0.0708275
0.0708161
0.0707921
0.0707698
0.0707575
0.0695097
0.0695165
0.0695279
0.0695392
0.0695441
0.0695392
0.0695279
0.0695165
0.0695097
0.0682484
0.0682539
0.0682626
0.0682705
0.0682738
0.0682706
0.0682626
0.0682539
0.0682484
0.0669762
0.0669831
0.0669937
0.0670031
0.0670068
0.0670031
0.0669937
0.0669831
0.0669762
0.0656902
0.0657008
0.0657172
0.0657314
0.065737
0.0657314
0.0657172
0.0657008
0.0656902
0.0643829
0.0643994
0.0644251
0.0644469
0.0644553
0.0644469
0.0644251
0.0643994
0.0643829
0.0630427
0.0630652
0.0631015
0.0631312
0.0631422
0.0631312
0.0631015
0.0630652
0.0630427
0.0616574
0.061678
0.0617156
0.061743
0.0617523
0.061743
0.0617156
0.061678
0.0616574
0.0602309
0.0602187
0.060214
0.0602
0.0601924
0.0602
0.060214
0.0602187
0.0602309
0.0588288
0.0587156
0.058547
0.0584035
0.0583488
0.0584035
0.0585471
0.0587156
0.0588288
0.057653
0.0574018
0.0569994
0.0566853
0.0565712
0.0566853
0.0569994
0.0574018
0.057653
0.0569795
0.0566428
0.0561033
0.0556969
0.0555519
0.0556969
0.0561033
0.0566428
0.0569795
0.0509768
0.0522123
0.0530772
0.0539117
0.0542076
0.0539117
0.0530772
0.0522123
0.0509768
0.0516295
0.0529538
0.0537489
0.0544999
0.0547593
0.0544999
0.0537489
0.0529538
0.0516295
0.0542832
0.0547537
0.0552226
0.0556413
0.0557972
0.0556413
0.0552226
0.0547537
0.0542832
0.0563617
0.0565568
0.0568034
0.0570187
0.0571016
0.0570187
0.0568034
0.0565568
0.0563617
0.058168
0.058257
0.0583822
0.058491
0.0585334
0.058491
0.0583822
0.058257
0.058168
0.0598422
0.059885
0.059948
0.0600029
0.0600244
0.0600029
0.059948
0.059885
0.0598422
0.0614514
0.0614725
0.0615043
0.0615321
0.061543
0.0615321
0.0615043
0.0614725
0.0614514
0.063028
0.0630387
0.063055
0.0630694
0.063075
0.0630694
0.063055
0.0630387
0.063028
0.0645879
0.0645937
0.0646027
0.0646106
0.0646138
0.0646106
0.0646027
0.0645937
0.0645879
0.0661385
0.0661424
0.0661486
0.0661543
0.0661567
0.0661543
0.0661486
0.0661424
0.0661385
0.0676824
0.0676864
0.0676934
0.0677007
0.0677039
0.0677007
0.0676934
0.0676863
0.0676824
0.0692179
0.0692242
0.0692368
0.0692516
0.0692589
0.0692516
0.0692368
0.0692241
0.0692179
0.0707374
0.070749
0.0707765
0.0708126
0.0708321
0.0708126
0.0707765
0.070749
0.0707374
0.0722206
0.0722422
0.0723034
0.0723948
0.0724518
0.0723948
0.0723034
0.0722422
0.0722206
0.07362
0.0736564
0.0737871
0.0740143
0.0741879
0.0740143
0.0737871
0.0736564
0.0736199
0.0748308
0.074882
0.0751347
0.075658
0.0761862
0.075658
0.0751347
0.074882
0.0748307
0.075649
0.0757048
0.0761019
0.0770853
0.078508
0.0770853
0.0761019
0.0757048
0.075649
0.0757891
0.0758449
0.0762416
0.0772231
0.0786414
0.0772231
0.0762416
0.0758449
0.0757891
0.0752523
0.0753035
0.0755557
0.0760776
0.0766039
0.0760776
0.0755557
0.0753035
0.0752523
0.0743237
0.0743602
0.0744906
0.0747173
0.0748902
0.0747173
0.0744906
0.0743601
0.0743237
0.0732071
0.0732288
0.0732899
0.0733812
0.0734381
0.0733812
0.0732899
0.0732287
0.0732071
0.0720067
0.0720185
0.0720462
0.0720824
0.072102
0.0720824
0.0720462
0.0720185
0.0720067
0.0707698
0.0707764
0.0707896
0.0708048
0.0708122
0.0708048
0.0707896
0.0707764
0.0707698
0.0695165
0.0695211
0.0695291
0.0695372
0.0695408
0.0695372
0.0695291
0.0695211
0.0695165
0.0682539
0.0682589
0.0682668
0.0682741
0.0682771
0.0682741
0.0682668
0.0682589
0.0682539
0.0669831
0.0669907
0.0670026
0.0670131
0.0670172
0.0670131
0.0670026
0.0669908
0.0669831
0.0657008
0.0657142
0.065735
0.0657529
0.0657598
0.0657529
0.065735
0.0657143
0.0657008
0.0643994
0.0644231
0.0644604
0.0644916
0.0645035
0.0644917
0.0644604
0.0644231
0.0643994
0.0630652
0.0631045
0.0631703
0.0632223
0.0632412
0.0632223
0.0631703
0.0631045
0.0630652
0.061678
0.0617331
0.0618415
0.061916
0.0619407
0.061916
0.0618415
0.0617331
0.061678
0.0602187
0.060255
0.0603888
0.0604471
0.0604608
0.0604471
0.0603888
0.060255
0.0602187
0.0587156
0.0585817
0.0584027
0.0582364
0.0581735
0.0582364
0.0584027
0.0585817
0.0587156
0.0574018
0.0569984
0.0562594
0.0557555
0.0555848
0.0557555
0.0562595
0.0569985
0.0574019
0.0566428
0.0560865
0.0550741
0.0544471
0.0542424
0.0544471
0.0550741
0.0560865
0.0566428
0.051604
0.0530772
0.0539089
0.0544467
0.0546343
0.0544467
0.0539089
0.0530772
0.051604
0.0522429
0.0537489
0.054497
0.0549667
0.0551293
0.0549667
0.054497
0.0537489
0.0522429
0.0547466
0.0552226
0.0556417
0.0559435
0.0560528
0.0559435
0.0556417
0.0552226
0.0547466
0.0566188
0.0568034
0.0570213
0.0571927
0.0572571
0.0571927
0.0570213
0.0568034
0.0566187
0.0583
0.0583822
0.0584939
0.0585863
0.0586218
0.0585863
0.0584939
0.0583822
0.0583
0.0599086
0.059948
0.0600052
0.0600538
0.0600727
0.0600538
0.0600052
0.059948
0.0599086
0.0614847
0.0615043
0.0615336
0.0615589
0.0615688
0.0615589
0.0615336
0.0615043
0.0614847
0.0630451
0.063055
0.0630701
0.0630832
0.0630883
0.0630832
0.0630701
0.063055
0.0630451
0.0645977
0.0646027
0.0646104
0.0646172
0.0646199
0.0646172
0.0646103
0.0646026
0.0645977
0.0661463
0.0661486
0.0661524
0.066156
0.0661575
0.066156
0.0661524
0.0661486
0.0661463
0.0676932
0.0676934
0.0676947
0.0676969
0.067698
0.0676969
0.0676947
0.0676934
0.0676932
0.0692399
0.0692368
0.0692354
0.0692373
0.0692391
0.0692373
0.0692354
0.0692368
0.0692399
0.0707878
0.0707765
0.0707693
0.0707729
0.0707775
0.0707729
0.0707693
0.0707765
0.0707878
0.0723378
0.0723034
0.0722818
0.0722918
0.0723065
0.0722918
0.0722818
0.0723033
0.0723378
0.0738827
0.0737871
0.0737309
0.0737605
0.0738057
0.0737605
0.0737309
0.0737871
0.0738827
0.0753709
0.0751347
0.0750084
0.0750844
0.0752103
0.0750844
0.0750084
0.0751347
0.0753709
0.0765634
0.0761019
0.0758815
0.0760276
0.0763016
0.0760276
0.0758815
0.0761019
0.0765634
0.0767022
0.0762416
0.0760215
0.0761674
0.0764407
0.0761674
0.0760215
0.0762416
0.0767022
0.0757912
0.0755557
0.0754298
0.0755055
0.075631
0.0755055
0.0754298
0.0755557
0.0757912
0.0745859
0.0744906
0.0744347
0.0744642
0.0745093
0.0744642
0.0744347
0.0744906
0.0745859
0.0733241
0.0732899
0.0732686
0.0732788
0.0732934
0.0732788
0.0732686
0.0732899
0.0733241
0.0720572
0.0720462
0.0720394
0.0720433
0.072048
0.0720433
0.0720394
0.0720462
0.0720572
0.0707921
0.0707896
0.0707889
0.0707915
0.0707935
0.0707915
0.0707889
0.0707896
0.0707921
0.0695279
0.0695291
0.0695319
0.0695354
0.069537
0.0695354
0.0695319
0.0695291
0.0695279
0.0682626
0.0682668
0.0682736
0.0682798
0.0682824
0.0682798
0.0682736
0.0682668
0.0682626
0.0669937
0.0670026
0.0670164
0.0670285
0.0670332
0.0670285
0.0670164
0.0670026
0.0669937
0.0657172
0.065735
0.0657627
0.0657864
0.0657955
0.0657864
0.0657627
0.065735
0.0657172
0.0644251
0.0644604
0.0645171
0.0645639
0.0645814
0.0645639
0.0645172
0.0644604
0.0644251
0.0631015
0.0631703
0.0632917
0.0633835
0.0634161
0.0633835
0.0632917
0.0631703
0.0631015
0.0617156
0.0618415
0.0621251
0.0623016
0.0623581
0.0623016
0.0621251
0.0618415
0.0617156
0.060214
0.0603888
0.0611727
0.0614805
0.0615639
0.0614805
0.0611727
0.0603888
0.0602141
0.0585471
0.0584027
0.0584027
0.0585471
0.0569994
0.0562594
0.0543265
0.0533197
0.0530107
0.0533197
0.0543266
0.0562595
0.0569994
0.0561033
0.0550741
0.0524744
0.0514667
0.0511813
0.0514667
0.0524744
0.0550742
0.0561033
0.047438
0.0471166
0.0469817
0.0471166
0.047438
0.0430445
0.0429406
0.0428884
0.0429406
0.0430445
0.0388587
0.0388249
0.0388062
0.0388249
0.0388587
0.0347406
0.0347295
0.0347231
0.0347295
0.0347406
0.0306446
0.0306409
0.0306388
0.0306409
0.0306446
0.0265558
0.0265546
0.0265539
0.0265546
0.0265558
0.0224694
0.022469
0.0224688
0.022469
0.0224694
0.0183838
0.0183836
0.0183836
0.0183836
0.0183838
0.0142984
0.0142984
0.0142983
0.0142984
0.0142984
0.0102131
0.0102131
0.0102131
0.0102131
0.0102131
0.00612787
0.00612786
0.00612786
0.00612786
0.00612787
0.00204262
0.00204262
0.00204262
0.00204262
0.00204262
0.053327
0.0539117
0.0544467
0.0548119
0.0549411
0.0548119
0.0544467
0.0539117
0.053327
0.0539715
0.0544999
0.0549667
0.0552838
0.0553961
0.0552838
0.0549667
0.0544999
0.0539715
0.0553657
0.0556413
0.0559435
0.0561655
0.0562463
0.0561655
0.0559435
0.0556413
0.0553657
0.056882
0.0570187
0.0571927
0.0573295
0.0573807
0.0573295
0.0571927
0.0570187
0.056882
0.0584223
0.058491
0.0585863
0.0586648
0.0586947
0.0586648
0.0585863
0.058491
0.0584223
0.0599678
0.0600029
0.0600538
0.0600969
0.0601136
0.0600969
0.0600538
0.0600029
0.0599678
0.0615141
0.0615321
0.0615589
0.061582
0.061591
0.061582
0.0615589
0.0615321
0.0615141
0.0630602
0.0630694
0.0630832
0.0630952
0.0630999
0.0630952
0.0630832
0.0630694
0.0630602
0.0646064
0.0646106
0.0646172
0.064623
0.0646253
0.064623
0.0646172
0.0646106
0.0646064
0.0661535
0.0661543
0.066156
0.0661578
0.0661586
0.0661578
0.066156
0.0661543
0.0661534
0.0677039
0.0677007
0.0676969
0.0676946
0.0676939
0.0676946
0.0676969
0.0677007
0.0677039
0.0692636
0.0692516
0.0692373
0.0692281
0.0692253
0.0692281
0.0692373
0.0692516
0.0692636
0.0708476
0.0708126
0.0707729
0.0707487
0.0707417
0.0707487
0.0707729
0.0708126
0.0708476
0.0724946
0.0723948
0.0722918
0.0722347
0.07222
0.0722347
0.0722918
0.0723948
0.0724946
0.0742979
0.0740143
0.0737605
0.0736357
0.0736085
0.0736357
0.0737605
0.0740143
0.0742979
0.076443
0.075658
0.0750844
0.0748415
0.0747994
0.0748415
0.0750844
0.075658
0.076443
0.0789932
0.0770853
0.0760276
0.0756455
0.0755953
0.0756455
0.0760276
0.0770853
0.0789931
0.0791256
0.0772231
0.0761674
0.0757858
0.0757356
0.0757858
0.0761674
0.0772231
0.0791256
0.07686
0.0760776
0.0755055
0.0752632
0.0752212
0.0752632
0.0755055
0.0760776
0.07686
0.0749998
0.0747173
0.0744642
0.0743399
0.0743128
0.0743399
0.0744642
0.0747172
0.0749998
0.0734805
0.0733812
0.0732788
0.073222
0.0732074
0.073222
0.0732788
0.0733812
0.0734805
0.072117
0.0720824
0.0720433
0.0720195
0.0720128
0.0720195
0.0720433
0.0720824
0.072117
0.0708161
0.0708048
0.0707915
0.0707831
0.0707806
0.0707831
0.0707915
0.0708048
0.0708161
0.0695392
0.0695372
0.0695354
0.0695347
0.0695347
0.0695347
0.0695354
0.0695372
0.0695392
0.0682706
0.0682741
0.0682798
0.0682851
0.0682873
0.0682851
0.0682798
0.0682741
0.0682706
0.0670031
0.0670131
0.0670285
0.0670419
0.0670471
0.0670419
0.0670285
0.0670131
0.0670031
0.0657314
0.0657529
0.0657864
0.0658149
0.0658259
0.0658149
0.0657864
0.0657529
0.0657314
0.0644469
0.0644917
0.0645639
0.0646232
0.0646453
0.0646232
0.0645639
0.0644917
0.0644469
0.0631312
0.0632223
0.0633835
0.0635057
0.063549
0.0635057
0.0633835
0.0632223
0.0631312
0.061743
0.061916
0.0623016
0.062546
0.0626251
0.062546
0.0623016
0.0619161
0.061743
0.0602
0.0604471
0.0614805
0.0619172
0.0620394
0.0619172
0.0614805
0.0604471
0.0602
0.0584035
0.0582365
0.0582365
0.0584035
0.0566853
0.0557555
0.0533197
0.0520392
0.0516478
0.0520392
0.0533197
0.0557555
0.0566853
0.0556969
0.0544471
0.0514667
0.0502613
0.0499195
0.0502613
0.0514667
0.0544471
0.0556969
0.0471166
0.0467558
0.0466059
0.0467558
0.0471166
0.0429406
0.0428286
0.0427727
0.0428286
0.0429406
0.0388249
0.0387894
0.0387698
0.0387894
0.0388249
0.0347295
0.0347181
0.0347115
0.0347181
0.0347295
0.0306409
0.0306372
0.030635
0.0306372
0.0306409
0.0265546
0.0265534
0.0265527
0.0265534
0.0265546
0.022469
0.0224686
0.0224684
0.0224686
0.022469
0.0183836
0.0183835
0.0183834
0.0183835
0.0183836
0.0142984
0.0142983
0.0142983
0.0142983
0.0142984
0.0102131
0.0102131
0.0102131
0.0102131
0.0102131
0.00612786
0.00612786
0.00612786
0.00612786
0.00612786
0.00204262
0.00204262
0.00204262
0.00204262
0.00204262
0.0538209
0.0542076
0.0546343
0.0549411
0.0550513
0.0549411
0.0546343
0.0542076
0.0538209
0.0544221
0.0547593
0.0551293
0.0553961
0.0554922
0.0553961
0.0551293
0.0547593
0.0544221
0.0555871
0.0557972
0.0560528
0.0562463
0.0563175
0.0562463
0.0560528
0.0557972
0.0555871
0.0569847
0.0571016
0.0572571
0.0573807
0.0574271
0.0573807
0.0572571
0.0571016
0.0569847
0.0584708
0.0585334
0.0586218
0.0586947
0.0587226
0.0586947
0.0586218
0.0585334
0.0584708
0.0599913
0.0600244
0.0600727
0.0601136
0.0601295
0.0601136
0.0600727
0.0600244
0.0599913
0.0615258
0.061543
0.0615688
0.061591
0.0615997
0.061591
0.0615688
0.061543
0.0615258
0.0630662
0.063075
0.0630883
0.0630999
0.0631045
0.0630999
0.0630883
0.063075
0.0630662
0.0646098
0.0646138
0.0646199
0.0646253
0.0646275
0.0646253
0.0646199
0.0646138
0.0646098
0.0661564
0.0661567
0.0661575
0.0661586
0.066159
0.0661586
0.0661575
0.0661567
0.0661564
0.0677086
0.0677039
0.067698
0.0676939
0.0676926
0.0676939
0.067698
0.0677039
0.0677086
0.0692748
0.0692589
0.0692391
0.0692253
0.0692206
0.0692252
0.069239
0.0692589
0.0692748
0.0708794
0.0708321
0.0707775
0.0707417
0.0707303
0.0707417
0.0707775
0.0708321
0.0708794
0.0725951
0.0724518
0.0723065
0.07222
0.0721942
0.07222
0.0723065
0.0724518
0.0725951
0.0746548
0.0741879
0.0738057
0.0736085
0.0735546
0.0736085
0.0738057
0.0741879
0.0746548
0.0778951
0.0761862
0.0752103
0.0747994
0.0746994
0.0747994
0.0752103
0.0761862
0.0778951
0.0857484
0.078508
0.0763016
0.0755953
0.0754442
0.0755953
0.0763016
0.078508
0.0857484
0.0858495
0.0786414
0.0764407
0.0757356
0.0755846
0.0757356
0.0764407
0.0786414
0.0858495
0.0783057
0.0766039
0.075631
0.0752212
0.0751214
0.0752212
0.075631
0.0766039
0.0783057
0.0753552
0.0748902
0.0745093
0.0743128
0.074259
0.0743128
0.0745093
0.0748902
0.0753552
0.0735806
0.0734381
0.0732934
0.0732074
0.0731817
0.0732074
0.0732934
0.0734381
0.0735806
0.0721488
0.072102
0.072048
0.0720128
0.0720015
0.0720128
0.072048
0.072102
0.0721488
0.0708275
0.0708122
0.0707935
0.0707806
0.0707763
0.0707806
0.0707935
0.0708122
0.0708275
0.0695441
0.0695408
0.069537
0.0695347
0.0695341
0.0695347
0.069537
0.0695408
0.0695441
0.0682738
0.0682771
0.0682824
0.0682873
0.0682893
0.0682873
0.0682824
0.0682771
0.0682738
0.0670068
0.0670172
0.0670332
0.0670471
0.0670525
0.0670471
0.0670332
0.0670172
0.0670068
0.065737
0.0657598
0.0657955
0.0658259
0.0658375
0.0658259
0.0657955
0.0657598
0.065737
0.0644553
0.0645035
0.0645814
0.0646453
0.0646691
0.0646453
0.0645814
0.0645035
0.0644553
0.0631423
0.0632412
0.0634161
0.063549
0.0635961
0.063549
0.0634161
0.0632412
0.0631423
0.0617523
0.0619408
0.0623582
0.0626251
0.0627117
0.0626251
0.0623582
0.0619408
0.0617523
0.0601924
0.0604608
0.0615639
0.0620394
0.0621739
0.0620394
0.0615639
0.0604608
0.0601924
0.0583488
0.0581735
0.0581735
0.0583488
0.0565712
0.0555848
0.0530107
0.0516478
0.0512301
0.0516478
0.0530107
0.0555848
0.0565712
0.0555519
0.0542424
0.0511813
0.0499195
0.0495597
0.0499195
0.0511813
0.0542425
0.0555519
0.0469817
0.0466059
0.0464497
0.0466059
0.0469817
0.0428884
0.0427727
0.0427151
0.0427727
0.0428884
0.0388062
0.0387698
0.0387499
0.0387698
0.0388062
0.0347231
0.0347115
0.0347048
0.0347115
0.0347231
0.0306388
0.030635
0.0306328
0.030635
0.0306388
0.0265539
0.0265527
0.0265519
0.0265527
0.0265539
0.0224688
0.0224684
0.0224681
0.0224684
0.0224688
0.0183836
0.0183834
0.0183834
0.0183834
0.0183836
0.0142983
0.0142983
0.0142983
0.0142983
0.0142983
0.0102131
0.0102131
0.0102131
0.0102131
0.0102131
0.00612786
0.00612786
0.00612785
0.00612786
0.00612786
0.00204262
0.00204262
0.00204262
0.00204262
0.00204262
0.053327
0.0539117
0.0544467
0.0548119
0.0549411
0.0548119
0.0544467
0.0539117
0.053327
0.0539715
0.0544999
0.0549667
0.0552838
0.0553961
0.0552838
0.0549667
0.0544999
0.0539715
0.0553657
0.0556413
0.0559435
0.0561655
0.0562463
0.0561655
0.0559435
0.0556413
0.0553657
0.056882
0.0570187
0.0571927
0.0573295
0.0573807
0.0573295
0.0571927
0.0570187
0.056882
0.0584223
0.058491
0.0585863
0.0586648
0.0586947
0.0586648
0.0585863
0.058491
0.0584223
0.0599678
0.0600029
0.0600538
0.0600969
0.0601136
0.0600969
0.0600538
0.0600029
0.0599678
0.0615141
0.0615321
0.0615589
0.061582
0.061591
0.061582
0.0615589
0.0615321
0.0615141
0.0630602
0.0630694
0.0630832
0.0630952
0.0630999
0.0630952
0.0630832
0.0630694
0.0630602
0.0646064
0.0646106
0.0646172
0.064623
0.0646253
0.064623
0.0646172
0.0646106
0.0646064
0.0661535
0.0661543
0.066156
0.0661578
0.0661586
0.0661578
0.066156
0.0661543
0.0661534
0.0677039
0.0677007
0.0676969
0.0676946
0.0676939
0.0676946
0.0676969
0.0677007
0.0677039
0.0692636
0.0692516
0.0692373
0.0692281
0.0692252
0.0692281
0.0692373
0.0692516
0.0692636
0.0708476
0.0708126
0.0707729
0.0707487
0.0707417
0.0707487
0.0707729
0.0708126
0.0708476
0.0724946
0.0723948
0.0722918
0.0722347
0.07222
0.0722347
0.0722918
0.0723948
0.0724946
0.0742979
0.0740143
0.0737605
0.0736357
0.0736085
0.0736357
0.0737605
0.0740143
0.0742979
0.076443
0.075658
0.0750844
0.0748414
0.0747994
0.0748414
0.0750844
0.075658
0.076443
0.0789931
0.0770853
0.0760276
0.0756455
0.0755953
0.0756455
0.0760276
0.0770853
0.0789931
0.0791256
0.0772231
0.0761674
0.0757858
0.0757356
0.0757858
0.0761674
0.0772231
0.0791256
0.07686
0.0760776
0.0755055
0.0752632
0.0752212
0.0752632
0.0755055
0.0760776
0.07686
0.0749998
0.0747173
0.0744642
0.0743399
0.0743128
0.0743399
0.0744642
0.0747173
0.0749998
0.0734805
0.0733812
0.0732788
0.073222
0.0732074
0.073222
0.0732788
0.0733812
0.0734805
0.072117
0.0720824
0.0720433
0.0720195
0.0720128
0.0720195
0.0720433
0.0720824
0.072117
0.0708161
0.0708048
0.0707915
0.0707831
0.0707806
0.0707831
0.0707915
0.0708048
0.0708161
0.0695392
0.0695372
0.0695354
0.0695347
0.0695347
0.0695347
0.0695354
0.0695372
0.0695392
0.0682706
0.0682741
0.0682798
0.0682852
0.0682873
0.0682852
0.0682798
0.0682741
0.0682706
0.0670031
0.0670131
0.0670285
0.0670419
0.0670471
0.0670419
0.0670285
0.0670131
0.0670031
0.0657314
0.0657529
0.0657864
0.0658149
0.0658259
0.0658149
0.0657864
0.0657529
0.0657314
0.0644469
0.0644917
0.0645639
0.0646232
0.0646453
0.0646232
0.0645639
0.0644917
0.064447
0.0631312
0.0632223
0.0633836
0.0635057
0.063549
0.0635057
0.0633836
0.0632223
0.0631312
0.061743
0.0619161
0.0623016
0.062546
0.0626251
0.062546
0.0623016
0.0619161
0.061743
0.0602
0.0604471
0.0614805
0.0619172
0.0620394
0.0619172
0.0614805
0.0604471
0.0602
0.0584035
0.0582365
0.0582365
0.0584035
0.0566853
0.0557555
0.0533197
0.0520393
0.0516478
0.0520393
0.0533197
0.0557555
0.0566853
0.0556969
0.0544471
0.0514667
0.0502613
0.0499195
0.0502613
0.0514667
0.0544472
0.0556969
0.0471166
0.0467558
0.0466059
0.0467558
0.0471166
0.0429406
0.0428286
0.0427727
0.0428286
0.0429406
0.0388249
0.0387894
0.0387698
0.0387894
0.0388249
0.0347295
0.0347181
0.0347115
0.0347181
0.0347295
0.0306409
0.0306372
0.030635
0.0306372
0.0306409
0.0265546
0.0265534
0.0265527
0.0265534
0.0265546
0.022469
0.0224686
0.0224684
0.0224686
0.022469
0.0183836
0.0183835
0.0183834
0.0183835
0.0183836
0.0142984
0.0142983
0.0142983
0.0142983
0.0142984
0.0102131
0.0102131
0.0102131
0.0102131
0.0102131
0.00612786
0.00612786
0.00612786
0.00612786
0.00612786
0.00204262
0.00204262
0.00204262
0.00204262
0.00204262
0.051604
0.0530772
0.0539089
0.0544467
0.0546343
0.0544467
0.0539089
0.0530772
0.051604
0.0522429
0.0537489
0.054497
0.0549667
0.0551293
0.0549667
0.054497
0.0537489
0.0522429
0.0547466
0.0552226
0.0556417
0.0559435
0.0560528
0.0559435
0.0556417
0.0552226
0.0547466
0.0566187
0.0568034
0.0570213
0.0571927
0.0572571
0.0571927
0.0570213
0.0568034
0.0566187
0.0583
0.0583822
0.0584939
0.0585863
0.0586218
0.0585863
0.0584939
0.0583822
0.0583
0.0599086
0.059948
0.0600052
0.0600538
0.0600727
0.0600538
0.0600052
0.059948
0.0599086
0.0614847
0.0615043
0.0615336
0.0615589
0.0615688
0.0615589
0.0615336
0.0615043
0.0614847
0.0630451
0.063055
0.0630701
0.0630832
0.0630883
0.0630832
0.0630701
0.063055
0.0630451
0.0645976
0.0646026
0.0646103
0.0646172
0.0646199
0.0646172
0.0646103
0.0646026
0.0645976
0.0661463
0.0661486
0.0661524
0.066156
0.0661575
0.066156
0.0661524
0.0661486
0.0661463
0.0676932
0.0676934
0.0676947
0.0676969
0.067698
0.0676969
0.0676947
0.0676934
0.0676932
0.0692399
0.0692368
0.0692354
0.0692373
0.069239
0.0692373
0.0692354
0.0692368
0.0692399
0.0707878
0.0707765
0.0707693
0.0707729
0.0707775
0.0707729
0.0707693
0.0707765
0.0707878
0.0723378
0.0723033
0.0722818
0.0722918
0.0723065
0.0722918
0.0722818
0.0723033
0.0723378
0.0738827
0.0737871
0.0737309
0.0737605
0.0738057
0.0737605
0.0737309
0.0737871
0.0738827
0.0753709
0.0751347
0.0750084
0.0750844
0.0752103
0.0750844
0.0750084
0.0751347
0.0753709
0.0765634
0.0761019
0.0758815
0.0760276
0.0763016
0.0760276
0.0758815
0.0761019
0.0765634
0.0767022
0.0762416
0.0760215
0.0761674
0.0764407
0.0761674
0.0760215
0.0762416
0.0767022
0.0757912
0.0755557
0.0754298
0.0755055
0.075631
0.0755055
0.0754298
0.0755557
0.0757912
0.0745859
0.0744906
0.0744347
0.0744642
0.0745093
0.0744642
0.0744347
0.0744906
0.0745859
0.0733241
0.0732899
0.0732686
0.0732788
0.0732934
0.0732788
0.0732686
0.0732899
0.0733241
0.0720572
0.0720462
0.0720394
0.0720433
0.072048
0.0720433
0.0720394
0.0720462
0.0720572
0.0707921
0.0707896
0.0707889
0.0707915
0.0707935
0.0707915
0.0707889
0.0707896
0.0707921
0.0695279
0.0695291
0.0695319
0.0695354
0.069537
0.0695354
0.0695319
0.0695291
0.0695279
0.0682626
0.0682668
0.0682736
0.0682798
0.0682824
0.0682798
0.0682736
0.0682668
0.0682626
0.0669937
0.0670026
0.0670164
0.0670285
0.0670332
0.0670285
0.0670164
0.0670026
0.0669937
0.0657172
0.065735
0.0657627
0.0657864
0.0657955
0.0657864
0.0657627
0.065735
0.0657172
0.0644251
0.0644604
0.0645172
0.0645639
0.0645814
0.0645639
0.0645172
0.0644604
0.0644251
0.0631015
0.0631703
0.0632917
0.0633836
0.0634161
0.0633836
0.0632917
0.0631703
0.0631015
0.0617156
0.0618415
0.0621251
0.0623016
0.0623582
0.0623016
0.0621251
0.0618415
0.0617156
0.0602141
0.0603889
0.0611728
0.0614805
0.0615639
0.0614805
0.0611728
0.0603889
0.0602141
0.0585471
0.0584027
0.0584027
0.0585471
0.0569994
0.0562595
0.0543266
0.0533197
0.0530107
0.0533197
0.0543266
0.0562595
0.0569994
0.0561033
0.0550742
0.0524744
0.0514667
0.0511813
0.0514667
0.0524744
0.0550742
0.0561033
0.047438
0.0471166
0.0469817
0.0471166
0.047438
0.0430445
0.0429406
0.0428884
0.0429406
0.0430445
0.0388587
0.0388249
0.0388062
0.0388249
0.0388587
0.0347406
0.0347295
0.0347231
0.0347295
0.0347406
0.0306446
0.0306409
0.0306388
0.0306409
0.0306446
0.0265558
0.0265546
0.0265539
0.0265546
0.0265558
0.0224694
0.022469
0.0224688
0.022469
0.0224694
0.0183838
0.0183836
0.0183836
0.0183836
0.0183838
0.0142984
0.0142984
0.0142983
0.0142984
0.0142984
0.0102131
0.0102131
0.0102131
0.0102131
0.0102131
0.00612787
0.00612786
0.00612786
0.00612786
0.00612787
0.00204262
0.00204262
0.00204262
0.00204262
0.00204262
0.0509768
0.0522123
0.0530772
0.0539117
0.0542076
0.0539117
0.0530772
0.0522123
0.0509768
0.0516295
0.0529538
0.0537489
0.0544999
0.0547593
0.0544999
0.0537489
0.0529538
0.0516295
0.0542832
0.0547537
0.0552226
0.0556413
0.0557972
0.0556413
0.0552226
0.0547537
0.0542832
0.0563617
0.0565568
0.0568034
0.0570187
0.0571016
0.0570187
0.0568034
0.0565568
0.0563617
0.058168
0.058257
0.0583822
0.058491
0.0585334
0.058491
0.0583822
0.058257
0.058168
0.0598422
0.059885
0.059948
0.0600029
0.0600244
0.0600029
0.059948
0.059885
0.0598422
0.0614514
0.0614725
0.0615043
0.0615321
0.061543
0.0615321
0.0615043
0.0614725
0.0614514
0.0630279
0.0630387
0.063055
0.0630694
0.063075
0.0630694
0.063055
0.0630387
0.0630279
0.0645879
0.0645937
0.0646026
0.0646106
0.0646138
0.0646106
0.0646026
0.0645937
0.0645879
0.0661385
0.0661424
0.0661486
0.0661543
0.0661567
0.0661543
0.0661486
0.0661424
0.0661385
0.0676824
0.0676863
0.0676934
0.0677007
0.0677039
0.0677007
0.0676934
0.0676863
0.0676824
0.0692179
0.0692241
0.0692368
0.0692516
0.0692589
0.0692516
0.0692368
0.0692241
0.0692179
0.0707374
0.070749
0.0707765
0.0708126
0.0708321
0.0708126
0.0707765
0.070749
0.0707374
0.0722206
0.0722422
0.0723033
0.0723948
0.0724518
0.0723948
0.0723033
0.0722422
0.0722206
0.0736199
0.0736564
0.0737871
0.0740143
0.0741879
0.0740143
0.0737871
0.0736564
0.0736199
0.0748307
0.074882
0.0751347
0.075658
0.0761862
0.075658
0.0751347
0.074882
0.0748307
0.075649
0.0757048
0.0761019
0.0770853
0.078508
0.0770853
0.0761019
0.0757048
0.0756489
0.0757891
0.0758449
0.0762416
0.0772231
0.0786414
0.0772231
0.0762416
0.0758449
0.0757891
0.0752523
0.0753035
0.0755557
0.0760776
0.0766039
0.0760776
0.0755557
0.0753035
0.0752523
0.0743237
0.0743601
0.0744906
0.0747173
0.0748902
0.0747173
0.0744906
0.0743601
0.0743237
0.0732071
0.0732288
0.0732899
0.0733812
0.0734381
0.0733812
0.0732899
0.0732288
0.0732071
0.0720067
0.0720185
0.0720462
0.0720824
0.072102
0.0720824
0.0720462
0.0720185
0.0720067
0.0707698
0.0707764
0.0707896
0.0708049
0.0708122
0.0708049
0.0707896
0.0707764
0.0707698
0.0695165
0.0695211
0.0695291
0.0695372
0.0695408
0.0695372
0.0695291
0.0695211
0.0695165
0.0682539
0.0682589
0.0682668
0.0682741
0.0682771
0.0682741
0.0682668
0.0682589
0.0682539
0.0669831
0.0669908
0.0670026
0.0670131
0.0670172
0.0670131
0.0670026
0.0669908
0.0669831
0.0657008
0.0657143
0.065735
0.0657529
0.0657598
0.0657529
0.065735
0.0657143
0.0657009
0.0643994
0.0644231
0.0644604
0.0644917
0.0645035
0.0644917
0.0644604
0.0644231
0.0643995
0.0630652
0.0631046
0.0631703
0.0632223
0.0632412
0.0632223
0.0631703
0.0631046
0.0630653
0.061678
0.0617331
0.0618415
0.0619161
0.0619408
0.0619161
0.0618415
0.0617331
0.061678
0.0602187
0.060255
0.0603889
0.0604471
0.0604608
0.0604471
0.0603889
0.060255
0.0602187
0.0587156
0.0585817
0.0584027
0.0582365
0.0581735
0.0582365
0.0584027
0.0585817
0.0587156
0.0574019
0.0569985
0.0562595
0.0557555
0.0555848
0.0557555
0.0562595
0.0569985
0.0574019
0.0566428
0.0560865
0.0550742
0.0544472
0.0542425
0.0544472
0.0550742
0.0560865
0.0566428
0.0504148
0.0509768
0.051604
0.053327
0.0538209
0.053327
0.051604
0.0509768
0.0504148
0.0509498
0.0516295
0.0522429
0.0539715
0.0544221
0.0539715
0.0522429
0.0516295
0.0509498
0.0539245
0.0542832
0.0547466
0.0553657
0.0555871
0.0553657
0.0547466
0.0542832
0.0539245
0.0561817
0.0563617
0.0566187
0.056882
0.0569847
0.056882
0.0566187
0.0563617
0.0561817
0.058079
0.058168
0.0583
0.0584223
0.0584708
0.0584223
0.0583
0.058168
0.058079
0.0597982
0.0598422
0.0599086
0.0599678
0.0599913
0.0599678
0.0599086
0.0598422
0.0597982
0.0614294
0.0614514
0.0614847
0.0615141
0.0615258
0.0615141
0.0614847
0.0614514
0.0614294
0.0630167
0.0630279
0.0630451
0.0630602
0.0630662
0.0630602
0.0630451
0.0630279
0.0630167
0.0645815
0.0645879
0.0645976
0.0646064
0.0646098
0.0646063
0.0645976
0.0645879
0.0645815
0.0661337
0.0661385
0.0661463
0.0661534
0.0661564
0.0661534
0.0661463
0.0661385
0.0661337
0.0676761
0.0676824
0.0676932
0.0677039
0.0677086
0.0677039
0.0676932
0.0676824
0.0676761
0.0692059
0.0692179
0.0692399
0.0692636
0.0692748
0.0692636
0.0692399
0.0692179
0.0692059
0.0707115
0.0707374
0.0707878
0.0708476
0.0708794
0.0708476
0.0707878
0.0707374
0.0707115
0.0721655
0.0722206
0.0723378
0.0724946
0.0725951
0.0724946
0.0723378
0.0722206
0.0721655
0.0735093
0.0736199
0.0738827
0.0742979
0.0746548
0.0742979
0.0738827
0.0736199
0.0735093
0.0746319
0.0748307
0.0753709
0.076443
0.0778951
0.076443
0.0753709
0.0748307
0.0746319
0.0753567
0.075649
0.0765634
0.0789931
0.0857484
0.0789931
0.0765634
0.0756489
0.0753567
0.0754972
0.0757891
0.0767022
0.0791256
0.0858495
0.0791256
0.0767022
0.0757891
0.0754972
0.0750537
0.0752523
0.0757912
0.07686
0.0783057
0.07686
0.0757912
0.0752523
0.0750537
0.0742133
0.0743237
0.0745859
0.0749998
0.0753552
0.0749998
0.0745859
0.0743237
0.0742133
0.073152
0.0732071
0.0733241
0.0734805
0.0735806
0.0734805
0.0733241
0.0732071
0.073152
0.0719807
0.0720067
0.0720572
0.072117
0.0721488
0.072117
0.0720572
0.0720067
0.0719807
0.0707575
0.0707698
0.0707921
0.0708161
0.0708275
0.0708161
0.0707921
0.0707698
0.0707575
0.0695097
0.0695165
0.0695279
0.0695392
0.0695441
0.0695392
0.0695279
0.0695165
0.0695097
0.0682484
0.0682539
0.0682626
0.0682706
0.0682738
0.0682706
0.0682626
0.0682539
0.0682484
0.0669762
0.0669831
0.0669937
0.0670031
0.0670068
0.0670031
0.0669937
0.0669831
0.0669762