/*--------------------------------*- C++ -*----------------------------------*\
  =========                 |
  \\      /  F ield         | OpenFOAM: The Open Source CFD Toolbox
   \\    /   O peration     | Website:  https://openfoam.org
    \\  /    A nd           | Version:  6
     \\/     M anipulation  |
\*---------------------------------------------------------------------------*/
FoamFile
{
    version     2.0;
    format      ascii;
    class       volVectorField;
    location    "0";
    object      U;
}
// * * * * * * * * * * * * * * * * * * * * * * * * * * * * * * * * * * * * * //

dimensions      [0 1 -1 0 0 0 0];

internalField   nonuniform List<vector> 
3029
(
(-0.0069576 -0.0069576 -0.00267511)
(-0.0159455 -0.00594613 -0.00326368)
(-0.0234057 -0.0117513 -0.00319477)
(-0.00292321 -0.0110847 -0.00322252)
(-0.00193323 8.02211e-10 -0.00300578)
(-0.00292321 0.0110847 -0.00322252)
(-0.0234057 0.0117513 -0.00319477)
(-0.0159455 0.00594612 -0.00326368)
(-0.00695759 0.00695759 -0.0026751)
(-0.0128964 -0.0128964 -0.0175486)
(-0.0229165 -0.00646579 -0.0165322)
(-0.0299592 -0.0117102 -0.0157133)
(-0.00264183 -0.0108957 -0.0101934)
(-0.00168625 1.50681e-09 -0.00883083)
(-0.00264183 0.0108958 -0.0101934)
(-0.0299592 0.0117102 -0.0157133)
(-0.0229165 0.00646579 -0.0165322)
(-0.0128964 0.0128964 -0.0175486)
(-0.00179365 -0.00179365 -0.0261597)
(-0.00235253 -0.00411085 -0.023661)
(-0.00237983 -0.00541256 -0.0218791)
(-0.00137775 -0.00420226 -0.0145525)
(-0.00105069 3.04178e-09 -0.0128132)
(-0.00137775 0.00420227 -0.0145525)
(-0.00237983 0.00541257 -0.0218791)
(-0.00235253 0.00411085 -0.023661)
(-0.00179365 0.00179365 -0.0261596)
(-0.00089993 -0.00089993 -0.0207725)
(-0.000975655 -0.00218521 -0.0194239)
(-0.000923262 -0.00260174 -0.0177666)
(-0.000683171 -0.00182989 -0.0152831)
(-0.000584526 4.68724e-09 -0.0144187)
(-0.000683171 0.0018299 -0.0152831)
(-0.000923261 0.00260174 -0.0177666)
(-0.000975654 0.00218522 -0.0194239)
(-0.000899929 0.000899931 -0.0207725)
(-0.000445056 -0.000445057 -0.0180825)
(-0.000445316 -0.001105 -0.0174027)
(-0.000411298 -0.00127176 -0.016449)
(-0.000343221 -0.000854298 -0.015429)
(-0.000312973 6.33776e-09 -0.015033)
(-0.000343221 0.000854309 -0.015429)
(-0.000411298 0.00127177 -0.016449)
(-0.000445315 0.00110501 -0.0174027)
(-0.000445055 0.000445058 -0.0180825)
(-0.000220085 -0.000220086 -0.0167522)
(-0.000213953 -0.000551744 -0.0164169)
(-0.000197411 -0.000628093 -0.0159237)
(-0.000175096 -0.000413875 -0.015459)
(-0.000165196 7.95584e-09 -0.0152747)
(-0.000175096 0.00041389 -0.015459)
(-0.000197411 0.000628105 -0.0159237)
(-0.000213953 0.00055175 -0.0164169)
(-0.000220084 0.000220087 -0.0167522)
(-0.000109757 -0.000109759 -0.0160925)
(-0.000105793 -0.00027646 -0.0159286)
(-9.8201e-05 -0.000313855 -0.0156828)
(-8.98929e-05 -0.000205333 -0.015462)
(-8.63204e-05 9.5195e-09 -0.0153744)
(-8.98929e-05 0.000205351 -0.015462)
(-9.82009e-05 0.000313869 -0.0156828)
(-0.000105793 0.000276468 -0.0159286)
(-0.000109756 0.00010976 -0.0160925)
(-5.62047e-05 -5.62065e-05 -0.0157606)
(-5.37359e-05 -0.000142037 -0.0156825)
(-4.96194e-05 -0.000161433 -0.0155648)
(-4.56399e-05 -0.000105494 -0.0154611)
(-4.39927e-05 1.10113e-08 -0.0154203)
(-4.56399e-05 0.000105514 -0.0154611)
(-4.96193e-05 0.00016145 -0.0155647)
(-5.37356e-05 0.000142046 -0.0156825)
(-5.62034e-05 5.62082e-05 -0.0157606)
(-3.16975e-05 -3.16994e-05 -0.0155848)
(-2.90846e-05 -8.06297e-05 -0.0155528)
(-2.49894e-05 -9.24459e-05 -0.0155058)
(-2.12747e-05 -6.08478e-05 -0.0154661)
(-1.97738e-05 1.23869e-08 -0.015451)
(-2.12747e-05 6.0871e-05 -0.0154661)
(-2.49893e-05 9.24645e-05 -0.0155058)
(-2.90843e-05 8.06394e-05 -0.0155528)
(-3.16961e-05 3.17015e-05 -0.0155848)
(-2.42655e-05 -2.42676e-05 -0.0154728)
(-1.92505e-05 -6.30397e-05 -0.0154727)
(-1.14695e-05 -7.46853e-05 -0.0154776)
(-4.44334e-06 -5.06811e-05 -0.0154877)
(-1.57962e-06 1.36219e-08 -0.0154938)
(-4.44336e-06 5.07066e-05 -0.0154877)
(-1.14695e-05 7.47057e-05 -0.0154776)
(-1.92502e-05 6.30505e-05 -0.0154727)
(-2.42641e-05 2.42699e-05 -0.0154728)
(-3.16051e-05 -3.16074e-05 -0.0153611)
(-1.96932e-05 -8.53675e-05 -0.0153971)
(-1.09382e-06 -0.000107385 -0.015468)
(1.60474e-05 -7.70964e-05 -0.0155505)
(2.3274e-05 1.46639e-08 -0.015592)
(1.60473e-05 7.71239e-05 -0.0155505)
(-1.09388e-06 0.000107407 -0.015468)
(-1.9693e-05 8.5379e-05 -0.0153971)
(-3.16036e-05 3.16098e-05 -0.0153611)
(-6.03039e-05 -6.03063e-05 -0.0151772)
(-3.105e-05 -0.000169944 -0.0152748)
(1.52303e-05 -0.000228133 -0.0154733)
(5.9617e-05 -0.000174705 -0.0157186)
(7.96851e-05 1.54663e-08 -0.0158543)
(5.96169e-05 0.000174734 -0.0157186)
(1.52301e-05 0.000228156 -0.0154733)
(-3.10499e-05 0.000169956 -0.0152748)
(-6.03023e-05 6.03087e-05 -0.0151772)
(-0.000129223 -0.000129226 -0.0147981)
(-5.81765e-05 -0.0003815 -0.0150132)
(5.67393e-05 -0.000551168 -0.0154898)
(0.000175133 -0.000458062 -0.0161554)
(0.000236526 1.59652e-08 -0.0166013)
(0.000175132 0.000458092 -0.0161554)
(5.67391e-05 0.000551192 -0.0154898)
(-5.81764e-05 0.000381512 -0.0150132)
(-0.000129222 0.000129228 -0.0147981)
(-0.000275357 -0.00027536 -0.013989)
(-0.000108168 -0.000861617 -0.0144129)
(0.00017237 -0.00137029 -0.0154745)
(0.000499341 -0.00128618 -0.0172514)
(0.000716105 1.61368e-08 -0.0188766)
(0.000499341 0.00128621 -0.0172514)
(0.000172369 0.00137031 -0.0154745)
(-0.000108167 0.000861629 -0.0144129)
(-0.000275356 0.000275362 -0.013989)
(-0.000553133 -0.000553135 -0.0123319)
(-0.000182121 -0.00186704 -0.0130509)
(0.000478341 -0.00338971 -0.0151655)
(0.00141778 -0.00386012 -0.0197419)
(0.0023345 1.60467e-08 -0.0265001)
(0.00141778 0.00386015 -0.0197419)
(0.00047834 0.00338973 -0.0151655)
(-0.000182121 0.00186705 -0.0130509)
(-0.000553132 0.000553138 -0.012332)
(-0.000994279 -0.000994281 -0.0092371)
(-0.00025632 -0.00369516 -0.010145)
(0.00118105 -0.0080613 -0.0134034)
(0.0039251 -0.0126208 -0.0234763)
(0.00854438 1.57743e-08 -0.0554683)
(0.0039251 0.0126208 -0.0234763)
(0.00118105 0.00806132 -0.0134034)
(-0.00025632 0.00369517 -0.010145)
(-0.000994277 0.000994283 -0.0092371)
(-0.00146105 -0.00146105 -0.0043264)
(-0.000279059 -0.00603335 -0.00479175)
(0.00230771 -0.016721 -0.00665624)
(0.00953925 -0.045925 -0.0134129)
(0.178718 1.51255e-08 -0.0397723)
(0.00953924 0.045925 -0.0134129)
(0.00230771 0.016721 -0.00665625)
(-0.000279059 0.00603337 -0.00479175)
(-0.00146105 0.00146106 -0.00432641)
(-0.00145962 -0.00145962 0.00151498)
(-0.000279159 -0.006025 0.0019835)
(0.00230308 -0.0166825 0.00386109)
(0.00951228 -0.0457368 0.0106659)
(0.177545 1.32173e-08 0.0372135)
(0.00951228 0.0457368 0.0106659)
(0.00230308 0.0166825 0.00386109)
(-0.000279159 0.00602501 0.00198349)
(-0.00145962 0.00145963 0.00151497)
(-0.000992529 -0.000992529 0.00641931)
(-0.000256215 -0.00368724 0.00732684)
(0.00117749 -0.0080386 0.0105815)
(0.00391195 -0.0125726 0.0206291)
(0.00850903 1.09592e-08 0.0524716)
(0.00391195 0.0125727 0.0206291)
(0.00117749 0.00803861 0.0105815)
(-0.000256216 0.00368725 0.00732683)
(-0.000992529 0.000992532 0.0064193)
(-0.000552093 -0.000552092 0.00950857)
(-0.000182081 -0.00186284 0.010226)
(0.000476471 -0.00338021 0.0123354)
(0.00141262 -0.00384667 0.0168972)
(0.00232523 8.92154e-09 0.0236254)
(0.00141262 0.00384669 0.0168972)
(0.000476471 0.00338022 0.0123354)
(-0.000182082 0.00186285 0.010226)
(-0.000552094 0.000552096 0.00950856)
(-0.000275105 -0.000275103 0.011163)
(-0.000108454 -0.000860393 0.0115854)
(0.000171157 -0.00136742 0.0126433)
(0.000496947 -0.00128263 0.0144137)
(0.000712799 6.33953e-09 0.0160319)
(0.000496946 0.00128264 0.0144137)
(0.000171156 0.00136743 0.0126433)
(-0.000108455 0.000860401 0.0115854)
(-0.000275107 0.000275107 0.011163)
(-0.000129689 -0.000129687 0.0119726)
(-5.90128e-05 -0.000382477 0.0121861)
(5.53116e-05 -0.000551836 0.01266)
(0.000173105 -0.000458092 0.0133221)
(0.000234189 3.34403e-09 0.0137658)
(0.000173105 0.000458099 0.0133221)
(5.53109e-05 0.000551841 0.0126599)
(-5.90138e-05 0.000382483 0.0121861)
(-0.000129691 0.00012969 0.0119725)
(-6.15378e-05 -6.15347e-05 0.012355)
(-3.27787e-05 -0.000173 0.0124509)
(1.27394e-05 -0.000231476 0.0126467)
(5.64409e-05 -0.000176781 0.0128893)
(7.62263e-05 3.95218e-10 0.0130237)
(5.64405e-05 0.000176782 0.0128893)
(1.27387e-05 0.000231477 0.0126467)
(-3.278e-05 0.000173004 0.0124509)
(-6.15406e-05 6.15378e-05 0.012355)
(-3.37592e-05 -3.37554e-05 0.0125456)
(-2.29139e-05 -9.07965e-05 0.0125798)
(-5.95051e-06 -0.000113506 0.0126478)
(9.75527e-06 -8.1045e-05 0.0127279)
(1.64155e-05 -2.50917e-09 0.0127684)
(9.75502e-06 8.10402e-05 0.0127279)
(-5.951e-06 0.000113502 0.0126478)
(-2.29149e-05 9.07973e-05 0.0125798)
(-3.37621e-05 3.37577e-05 0.0125456)
(-2.73063e-05 -2.73019e-05 0.0126677)
(-2.49154e-05 -7.07429e-05 0.012667)
(-2.11769e-05 -8.3372e-05 0.0126708)
(-1.76779e-05 -5.62568e-05 0.0126803)
(-1.61954e-05 -5.13052e-09 0.0126863)
(-1.76782e-05 5.6247e-05 0.0126803)
(-2.11774e-05 8.33643e-05 0.0126708)
(-2.49165e-05 7.07417e-05 0.012667)
(-2.73098e-05 2.73037e-05 0.0126677)
(-3.44195e-05 -3.44146e-05 0.0127911)
(-3.83908e-05 -8.76413e-05 0.0127652)
(-4.45373e-05 -0.000100218 0.0127268)
(-4.97042e-05 -6.55861e-05 0.0126956)
(-5.1657e-05 -7.53297e-09 0.0126843)
(-4.97043e-05 6.55718e-05 0.0126956)
(-4.45376e-05 0.000100206 0.0127267)
(-3.83917e-05 8.76373e-05 0.0127652)
(-3.44229e-05 3.44155e-05 0.0127911)
(-5.31771e-05 -5.31718e-05 0.0129662)
(-6.70963e-05 -0.000135083 0.0129182)
(-8.90031e-05 -0.000152955 0.0128431)
(-0.000107349 -9.8742e-05 0.0127809)
(-0.000114286 -9.51985e-09 0.0127576)
(-0.000107349 9.87239e-05 0.0127809)
(-8.90035e-05 0.000152941 0.0128431)
(-6.70973e-05 0.000135077 0.0129182)
(-5.31807e-05 5.31723e-05 0.0129662)
(-8.24626e-05 -8.2457e-05 0.0132375)
(-0.000118186 -0.000210747 0.013178)
(-0.000176456 -0.000237523 0.0130786)
(-0.000223579 -0.000151133 0.0130011)
(-0.000240932 -1.11888e-08 0.0129736)
(-0.000223579 0.000151112 0.0130011)
(-0.000176456 0.000237506 0.0130786)
(-0.000118187 0.000210739 0.013178)
(-8.24659e-05 8.24567e-05 0.0132375)
(-0.000112662 -0.000112657 0.0136277)
(-0.00019654 -0.000293942 0.0136071)
(-0.000344123 -0.000329862 0.0135474)
(-0.000455613 -0.000203778 0.0135195)
(-0.000494847 -1.24224e-08 0.0135151)
(-0.000455613 0.000203755 0.0135195)
(-0.000344123 0.000329842 0.0135474)
(-0.000196541 0.000293933 0.0136071)
(-0.000112666 0.000112656 0.0136277)
(-0.000103027 -0.000103021 0.014059)
(-0.000275397 -0.000291052 0.0142326)
(-0.000629415 -0.000325127 0.0144372)
(-0.000865053 -0.00018338 0.0146559)
(-0.000942319 -1.3323e-08 0.0147493)
(-0.000865053 0.000183354 0.0146559)
(-0.000629416 0.000325107 0.0144372)
(-0.000275398 0.000291041 0.0142326)
(-0.00010303 0.00010302 0.014059)
(6.09534e-05 6.09589e-05 0.0141431)
(-0.000181347 8.42624e-05 0.014812)
(-0.000873985 9.34424e-05 0.0158428)
(-0.00123542 0.000108305 0.0166975)
(-0.00134196 -1.37925e-08 0.0170173)
(-0.00123542 -0.000108331 0.0166975)
(-0.000873986 -9.3464e-05 0.0158428)
(-0.000181348 -8.42736e-05 0.014812)
(6.09504e-05 -6.09609e-05 0.0141431)
(0.000565836 0.000565842 0.0128895)
(0.000669689 0.00140863 0.0140843)
(0.000721799 0.00156041 0.0160733)
(0.000835388 0.000991149 0.0175736)
(0.000876824 -1.37681e-08 0.0181058)
(0.000835388 -0.000991175 0.0175736)
(0.000721798 -0.00156043 0.0160733)
(0.000669688 -0.00140864 0.0140843)
(0.000565834 -0.000565844 0.0128895)
(0.00125575 0.00125576 0.00924629)
(0.00201696 0.00326803 0.0103641)
(0.0036997 0.00358272 0.0122187)
(0.00464912 0.00214087 0.0135331)
(0.00493213 -1.31068e-08 0.0139848)
(0.00464912 -0.00214089 0.0135331)
(0.0036997 -0.00358274 0.0122187)
(0.00201696 -0.00326805 0.0103641)
(0.00125575 -0.00125576 0.00924629)
(0.00168368 0.00168369 0.00336738)
(0.0027816 0.00438108 0.00379532)
(0.00514579 0.0047294 0.00448043)
(0.00624881 0.00275719 0.004942)
(0.0065471 -1.25464e-08 0.00509675)
(0.00624881 -0.00275721 0.004942)
(0.00514579 -0.00472942 0.00448043)
(0.0027816 -0.00438109 0.00379532)
(0.00168368 -0.00168369 0.00336738)
(-0.00594612 -0.0159455 -0.00326368)
(-0.010502 -0.010502 -0.00370737)
(-0.0115248 -0.00849671 -0.00335867)
(-0.0055983 -0.00565206 -0.00294114)
(-0.00406671 1.36094e-09 -0.0027588)
(-0.0055983 0.00565206 -0.00294114)
(-0.0115248 0.00849671 -0.00335867)
(-0.010502 0.010502 -0.00370737)
(-0.00594612 0.0159455 -0.00326368)
(-0.00646579 -0.0229165 -0.0165322)
(-0.010597 -0.010597 -0.0127069)
(-0.0112702 -0.00773047 -0.0107272)
(-0.0049758 -0.00505218 -0.00864797)
(-0.00353616 2.06412e-09 -0.00794829)
(-0.0049758 0.00505219 -0.00864797)
(-0.0112702 0.00773047 -0.0107272)
(-0.010597 0.010597 -0.0127069)
(-0.00646579 0.0229165 -0.0165322)
(-0.00411085 -0.00235253 -0.023661)
(-0.00469703 -0.00469703 -0.0180151)
(-0.00447548 -0.00443778 -0.0152725)
(-0.0028887 -0.00287312 -0.0125939)
(-0.00232858 3.33933e-09 -0.0117115)
(-0.0028887 0.00287313 -0.0125939)
(-0.00447548 0.00443778 -0.0152725)
(-0.00469703 0.00469703 -0.0180151)
(-0.00411085 0.00235253 -0.023661)
(-0.00218521 -0.000975656 -0.0194239)
(-0.00220854 -0.00220855 -0.0175167)
(-0.00201287 -0.00230925 -0.0157981)
(-0.00155344 -0.00149115 -0.0142486)
(-0.00136167 4.85311e-09 -0.013681)
(-0.00155344 0.00149116 -0.0142486)
(-0.00201287 0.00230926 -0.0157981)
(-0.00220854 0.00220855 -0.0175167)
(-0.00218521 0.000975656 -0.0194239)
(-0.001105 -0.000445317 -0.0174027)
(-0.00107124 -0.00107125 -0.016641)
(-0.000969877 -0.00116966 -0.0157232)
(-0.000820005 -0.000755973 -0.0149209)
(-0.000754649 6.43215e-09 -0.0146137)
(-0.000820005 0.000755985 -0.0149209)
(-0.000969877 0.00116967 -0.0157232)
(-0.00107124 0.00107125 -0.016641)
(-0.001105 0.000445318 -0.0174027)
(-0.00055174 -0.000213955 -0.0164169)
(-0.000529066 -0.00052907 -0.0160774)
(-0.000483328 -0.000589236 -0.0156106)
(-0.000429952 -0.000381659 -0.0152057)
(-0.000406881 8.01674e-09 -0.0150481)
(-0.000429953 0.000381674 -0.0152057)
(-0.000483329 0.000589249 -0.0156106)
(-0.000529066 0.000529077 -0.0160774)
(-0.000551739 0.000213956 -0.0164169)
(-0.000276456 -0.000105794 -0.0159286)
(-0.0002649 -0.000264904 -0.0157684)
(-0.000244688 -0.000297955 -0.015535)
(-0.00022399 -0.000193452 -0.0153325)
(-0.000215266 9.5593e-09 -0.0152532)
(-0.000223991 0.00019347 -0.0153325)
(-0.000244688 0.000297969 -0.015535)
(-0.0002649 0.000264913 -0.0157684)
(-0.000276456 0.000105797 -0.0159286)
(-0.000142032 -5.37376e-05 -0.0156825)
(-0.000135447 -0.000135452 -0.0156058)
(-0.000124767 -0.000153337 -0.0154915)
(-0.000114697 -9.9867e-05 -0.0153925)
(-0.000110572 1.10345e-08 -0.0153537)
(-0.000114698 9.98877e-05 -0.0153925)
(-0.000124768 0.000153354 -0.0154915)
(-0.000135448 0.000135462 -0.0156058)
(-0.000142032 5.37403e-05 -0.0156825)
(-8.06241e-05 -2.90865e-05 -0.0155528)
(-7.39158e-05 -7.39215e-05 -0.0155183)
(-6.34745e-05 -8.4636e-05 -0.0154676)
(-5.40733e-05 -5.56322e-05 -0.0154249)
(-5.02927e-05 1.23881e-08 -0.0154085)
(-5.4074e-05 5.56555e-05 -0.0154249)
(-6.34756e-05 8.46548e-05 -0.0154676)
(-7.3917e-05 7.39326e-05 -0.0155183)
(-8.06241e-05 2.90896e-05 -0.0155528)
(-6.30336e-05 -1.92526e-05 -0.0154727)
(-5.02373e-05 -5.02437e-05 -0.0154633)
(-3.05061e-05 -5.98782e-05 -0.0154537)
(-1.28242e-05 -4.07912e-05 -0.0154503)
(-5.66836e-06 1.36014e-08 -0.0154508)
(-1.2825e-05 4.08168e-05 -0.0154503)
(-3.05075e-05 5.98989e-05 -0.0154537)
(-5.02388e-05 5.02558e-05 -0.0154633)
(-6.30337e-05 1.9256e-05 -0.0154727)
(-8.53609e-05 -1.96955e-05 -0.0153971)
(-5.48494e-05 -5.48562e-05 -0.0154089)
(-7.76823e-06 -7.1644e-05 -0.0154413)
(3.49811e-05 -5.27286e-05 -0.0154865)
(5.27206e-05 1.46052e-08 -0.0155107)
(3.49802e-05 5.2756e-05 -0.0154865)
(-7.76988e-06 7.16662e-05 -0.0154413)
(-5.48512e-05 5.48693e-05 -0.0154089)
(-8.53612e-05 1.96991e-05 -0.0153971)
(-0.000169938 -3.10524e-05 -0.0152748)
(-9.44031e-05 -9.44103e-05 -0.0153133)
(2.24029e-05 -0.000137466 -0.0154155)
(0.000131227 -0.00011025 -0.0155595)
(0.000178765 1.53721e-08 -0.0156411)
(0.000131226 0.000110279 -0.0155595)
(2.2401e-05 0.000137489 -0.0154155)
(-9.44051e-05 9.4424e-05 -0.0153133)
(-0.000169938 3.10562e-05 -0.0152748)
(-0.000381493 -5.81789e-05 -0.0150132)
(-0.00019553 -0.000195537 -0.0150903)
(9.26234e-05 -0.000317859 -0.0153327)
(0.000373709 -0.000278276 -0.0157156)
(0.000509628 1.5802e-08 -0.0159649)
(0.000373707 0.000278305 -0.0157156)
(9.26213e-05 0.000317883 -0.0153327)
(-0.000195532 0.000195551 -0.0150903)
(-0.000381493 5.81828e-05 -0.0150132)
(-0.000861611 -0.00010817 -0.0144129)
(-0.000413883 -0.000413891 -0.0145368)
(0.000280339 -0.000762782 -0.0150529)
(0.001014 -0.000742444 -0.0160088)
(0.00144303 1.59145e-08 -0.0167786)
(0.001014 0.000742474 -0.0160088)
(0.000280336 0.000762807 -0.0150529)
(-0.000413886 0.000413905 -0.0145368)
(-0.000861611 0.000108174 -0.0144129)
(-0.00186703 -0.000182123 -0.0130509)
(-0.000835559 -0.000835566 -0.013199)
(0.000759311 -0.00178981 -0.0141568)
(0.00268718 -0.00200396 -0.0163161)
(0.00424545 1.56804e-08 -0.0186718)
(0.00268718 0.00200399 -0.0163161)
(0.000759308 0.00178984 -0.0141568)
(-0.000835562 0.00083558 -0.013199)
(-0.00186703 0.000182127 -0.0130509)
(-0.00369516 -0.000256322 -0.010145)
(-0.00151983 -0.00151983 -0.010242)
(0.00181253 -0.00387988 -0.011574)
(0.00679322 -0.00525744 -0.0153548)
(0.0134241 1.50909e-08 -0.0216009)
(0.00679322 0.00525747 -0.0153548)
(0.00181253 0.0038799 -0.011574)
(-0.00151983 0.00151985 -0.010242)
(-0.00369516 0.000256325 -0.010145)
(-0.00603335 -0.00027906 -0.00479175)
(-0.00226459 -0.00226459 -0.00481459)
(0.00340967 -0.00690265 -0.00553421)
(0.0148277 -0.0120308 -0.00782575)
(0.0472342 1.39824e-08 -0.0122761)
(0.0148277 0.0120308 -0.00782575)
(0.00340966 0.00690268 -0.00553421)
(-0.00226459 0.0022646 -0.00481459)
(-0.00603335 0.000279064 -0.00479176)
(-0.006025 -0.000279159 0.0019835)
(-0.00226229 -0.00226229 0.00200635)
(0.00340326 -0.00689104 0.00273087)
(0.0147911 -0.0119993 0.00503857)
(0.047044 1.24502e-08 0.00952059)
(0.0147911 0.0119993 0.00503857)
(0.00340325 0.00689106 0.00273086)
(-0.00226229 0.00226231 0.00200634)
(-0.006025 0.000279163 0.00198349)
(-0.00368724 -0.000256215 0.00732684)
(-0.00151722 -0.00151722 0.00742392)
(0.00180712 -0.00387043 0.00875485)
(0.00677223 -0.00524109 0.0125295)
(0.0133735 1.07847e-08 0.0187562)
(0.00677223 0.00524111 0.0125295)
(0.00180712 0.00387045 0.00875485)
(-0.00151723 0.00151723 0.00742391)
(-0.00368724 0.000256219 0.00732683)
(-0.00186284 -0.000182081 0.010226)
(-0.000834279 -0.000834277 0.0103738)
(0.000756115 -0.0017855 0.0113291)
(0.00267774 -0.00199791 0.0134822)
(0.00422957 8.58937e-09 0.0158292)
(0.00267774 0.00199793 0.0134822)
(0.000756113 0.00178552 0.0113291)
(-0.000834282 0.000834286 0.0103737)
(-0.00186285 0.000182084 0.010226)
(-0.000860398 -0.000108452 0.0115854)
(-0.000414136 -0.000414131 0.0117084)
(0.00027782 -0.000762017 0.0122222)
(0.00100894 -0.000740991 0.0131742)
(0.00143628 5.86561e-09 0.0139409)
(0.00100894 0.000741002 0.0131742)
(0.000277818 0.000762026 0.0122222)
(-0.000414139 0.000414139 0.0117084)
(-0.000860402 0.000108455 0.0115854)
(-0.000382484 -5.90105e-05 0.0121861)
(-0.000197484 -0.000197477 0.0122618)
(8.91875e-05 -0.000319718 0.0125015)
(0.000368845 -0.000279215 0.0128816)
(0.000504079 2.96721e-09 0.0131292)
(0.000368844 0.000279221 0.0128816)
(8.91859e-05 0.000319723 0.0125015)
(-0.000197486 0.000197481 0.0122618)
(-0.000382488 5.90128e-05 0.0121861)
(-0.000173009 -3.27756e-05 0.0124509)
(-9.8732e-05 -9.87225e-05 0.012487)
(1.61472e-05 -0.000142256 0.0125854)
(0.000123254 -0.000113294 0.0127259)
(0.000170093 4.99047e-11 0.012806)
(0.000123253 0.000113294 0.0127259)
(1.6146e-05 0.000142256 0.0125854)
(-9.87341e-05 9.87242e-05 0.012487)
(-0.000173013 3.27772e-05 0.0124509)
(-9.08079e-05 -2.29101e-05 0.0125798)
(-6.29995e-05 -6.29878e-05 0.0125877)
(-2.0064e-05 -8.08364e-05 0.0126139)
(1.90525e-05 -5.8679e-05 0.0126538)
(3.53609e-05 -2.75577e-09 0.0126759)
(1.90523e-05 5.86737e-05 0.0126538)
(-2.00645e-05 8.08319e-05 0.0126139)
(-6.30007e-05 6.29862e-05 0.0125877)
(-9.08115e-05 2.29104e-05 0.0125798)
(-7.07561e-05 -2.49109e-05 0.012667)
(-6.46271e-05 -6.46135e-05 0.0126515)
(-5.51647e-05 -7.61346e-05 0.0126322)
(-4.64318e-05 -5.12752e-05 0.0126208)
(-4.2777e-05 -5.36344e-09 0.0126182)
(-4.64318e-05 5.1265e-05 0.0126208)
(-5.51648e-05 7.6126e-05 0.0126322)
(-6.4628e-05 6.46094e-05 0.0126515)
(-7.07599e-05 2.49105e-05 0.012667)
(-8.76559e-05 -3.83858e-05 0.0127652)
(-9.7774e-05 -9.7759e-05 0.012723)
(-0.000113494 -0.000111531 0.0126589)
(-0.000126715 -7.27058e-05 0.012606)
(-0.000131716 -7.68723e-09 0.0125862)
(-0.000126715 7.26912e-05 0.012606)
(-0.000113493 0.000111519 0.0126589)
(-9.77742e-05 9.77521e-05 0.012723)
(-8.7659e-05 3.83843e-05 0.0127652)
(-0.000135098 -6.7091e-05 0.0129182)
(-0.000170925 -0.000170908 0.0128384)
(-0.000227591 -0.000193209 0.0127112)
(-0.000274881 -0.000124025 0.012607)
(-0.000292721 -9.66475e-09 0.0125683)
(-0.000274881 0.000124006 0.012607)
(-0.00022759 0.000193193 0.0127112)
(-0.000170924 0.0001709 0.0128384)
(-0.000135101 6.70889e-05 0.0129182)
(-0.000210763 -0.000118181 0.013178)
(-0.000304757 -0.00030474 0.0130486)
(-0.00046031 -0.000342916 0.0128235)
(-0.000584711 -0.000215609 0.0126528)
(-0.000630243 -1.12798e-08 0.012593)
(-0.00058471 0.000215588 0.0126528)
(-0.000460309 0.000342898 0.0128235)
(-0.000304756 0.00030473 0.0130486)
(-0.000210765 0.000118178 0.013178)
(-0.000293958 -0.000196534 0.0136071)
(-0.000525419 -0.000525402 0.0134499)
(-0.000950844 -0.000588934 0.0130944)
(-0.0012617 -0.000354502 0.012878)
(-0.00136946 -1.25319e-08 0.0128138)
(-0.00126169 0.000354479 0.012878)
(-0.000950843 0.000588915 0.0130944)
(-0.000525418 0.00052539 0.0134499)
(-0.00029396 0.000196531 0.0136071)
(-0.000291068 -0.000275391 0.0142326)
(-0.000817457 -0.00081744 0.0142478)
(-0.00204736 -0.000914783 0.0139074)
(-0.00279261 -0.000496283 0.0138761)
(-0.00302932 -1.34501e-08 0.0139022)
(-0.00279261 0.000496258 0.0138761)
(-0.00204736 0.000914762 0.0139074)
(-0.000817456 0.000817427 0.0142478)
(-0.00029107 0.000275388 0.0142326)
(8.42464e-05 -0.000181341 0.014812)
(-0.000850693 -0.000850676 0.0157571)
(-0.00479352 -0.000960634 0.017194)
(-0.00640235 -0.000359674 0.018398)
(-0.00685741 -1.40009e-08 0.0188365)
(-0.00640235 0.000359647 0.018398)
(-0.00479352 0.000960611 0.017194)
(-0.000850694 0.000850663 0.0157571)
(8.42444e-05 0.000181337 0.014812)
(0.00140861 0.000669695 0.0140843)
(0.00156457 0.00156459 0.0162826)
(0.000721799 0.00172611 0.020647)
(0.000835388 0.00114617 0.0234581)
(0.000876824 -1.39901e-08 0.0243799)
(0.000835388 -0.0011462 0.0234581)
(0.000721798 -0.00172613 0.020647)
(0.00156457 -0.00156461 0.0162826)
(0.00140861 -0.000669698 0.0140843)
(0.00326802 0.00201696 0.0103641)
(0.00571196 0.00571198 0.012476)
(0.0133642 0.00621489 0.0166427)
(0.0168278 0.00337331 0.0189465)
(0.0178028 -1.25092e-08 0.019655)
(0.0168278 -0.00337333 0.0189466)
(0.0133642 -0.00621491 0.0166427)
(0.00571197 -0.00571199 0.0124761)
(0.00326802 -0.00201697 0.0103641)
(0.00438106 0.0027816 0.00379532)
(0.00784317 0.00784318 0.00455996)
(0.0181446 0.00819661 0.00592652)
(0.0211509 0.0041585 0.00654168)
(0.0218528 -1.18318e-08 0.00671171)
(0.0211509 -0.00415852 0.00654168)
(0.0181446 -0.00819663 0.00592652)
(0.00784317 -0.00784319 0.00455996)
(0.00438106 -0.00278161 0.00379532)
(-0.0117513 -0.0234057 -0.00319477)
(-0.0084967 -0.0115248 -0.00335867)
(-0.00684763 -0.00684763 -0.0029402)
(-0.00450101 -0.00362667 -0.00260002)
(-0.00366754 1.71775e-09 -0.00247523)
(-0.00450101 0.00362668 -0.00260002)
(-0.00684763 0.00684763 -0.0029402)
(-0.0084967 0.0115248 -0.00335867)
(-0.0117513 0.0234057 -0.00319477)
(-0.0117102 -0.0299592 -0.0157133)
(-0.00773047 -0.0112702 -0.0107272)
(-0.00608898 -0.00608898 -0.00866401)
(-0.00391962 -0.0031617 -0.00748383)
(-0.00318381 2.35206e-09 -0.0070927)
(-0.00391962 0.00316171 -0.00748382)
(-0.00608897 0.00608898 -0.00866401)
(-0.00773047 0.0112702 -0.0107272)
(-0.0117102 0.0299592 -0.0157133)
(-0.00541256 -0.00237983 -0.0218791)
(-0.00443778 -0.00447548 -0.0152725)
(-0.00360422 -0.00360423 -0.0126217)
(-0.00262113 -0.00205536 -0.0111302)
(-0.00224554 3.43213e-09 -0.0106387)
(-0.00262113 0.00205537 -0.0111302)
(-0.00360422 0.00360423 -0.0126217)
(-0.00443777 0.00447548 -0.0152725)
(-0.00541256 0.00237983 -0.0218791)
(-0.00260173 -0.000923262 -0.0177666)
(-0.00230925 -0.00201287 -0.0157981)
(-0.00194663 -0.00194663 -0.014261)
(-0.00155424 -0.00117869 -0.0132144)
(-0.00139541 4.76714e-09 -0.0128447)
(-0.00155424 0.0011787 -0.0132144)
(-0.00194663 0.00194664 -0.014261)
(-0.00230925 0.00201288 -0.0157981)
(-0.00260173 0.000923263 -0.0177666)
(-0.00127175 -0.000411299 -0.016449)
(-0.00116966 -0.00096988 -0.0157232)
(-0.00102051 -0.00102052 -0.0149195)
(-0.000868887 -0.000639069 -0.0143055)
(-0.000806352 6.20178e-09 -0.0140782)
(-0.000868888 0.000639081 -0.0143055)
(-0.00102052 0.00102053 -0.0149195)
(-0.00116966 0.000969886 -0.0157232)
(-0.00127176 0.000411301 -0.016449)
(-0.000628088 -0.000197413 -0.0159237)
(-0.000589231 -0.000483332 -0.0156106)
(-0.000528974 -0.00052898 -0.0151985)
(-0.000470412 -0.000337428 -0.014863)
(-0.00044627 7.66716e-09 -0.0147353)
(-0.000470413 0.000337442 -0.014863)
(-0.000528976 0.000528991 -0.0151985)
(-0.000589233 0.000483339 -0.0156106)
(-0.00062809 0.000197415 -0.0159237)
(-0.000313848 -9.82023e-05 -0.0156828)
(-0.000297948 -0.000244692 -0.015535)
(-0.000272939 -0.000272945 -0.0153243)
(-0.000249445 -0.000175912 -0.0151467)
(-0.000239843 9.10092e-09 -0.0150781)
(-0.000249446 0.000175929 -0.0151467)
(-0.000272941 0.000272959 -0.0153242)
(-0.000297951 0.0002447 -0.015535)
(-0.000313851 9.82048e-05 -0.0156828)
(-0.000161426 -4.9621e-05 -0.0155648)
(-0.00015333 -0.000124772 -0.0154915)
(-0.000140676 -0.000140684 -0.0153835)
(-0.000129141 -9.1299e-05 -0.0152912)
(-0.000124487 1.04722e-08 -0.0152553)
(-0.000129143 9.13187e-05 -0.0152912)
(-0.000140679 0.0001407 -0.0153835)
(-0.000153333 0.000124782 -0.0154915)
(-0.000161429 4.96239e-05 -0.0155647)
(-9.24377e-05 -2.49911e-05 -0.0155058)
(-8.46275e-05 -6.34801e-05 -0.0154676)
(-7.25949e-05 -7.26034e-05 -0.0154115)
(-6.18762e-05 -4.7666e-05 -0.0153642)
(-5.75945e-05 1.17258e-08 -0.015346)
(-6.18779e-05 4.76881e-05 -0.0153642)
(-7.25981e-05 7.26214e-05 -0.0154115)
(-8.46316e-05 6.3491e-05 -0.0154676)
(-9.24418e-05 2.49945e-05 -0.0155058)
(-7.46763e-05 -1.14714e-05 -0.0154776)
(-5.98689e-05 -3.05123e-05 -0.0154537)
(-3.72628e-05 -3.72722e-05 -0.0154218)
(-1.72352e-05 -2.58433e-05 -0.0153986)
(-9.20945e-06 1.28362e-08 -0.0153908)
(-1.72371e-05 2.58675e-05 -0.0153986)
(-3.72664e-05 3.72919e-05 -0.0154218)
(-5.98735e-05 3.05243e-05 -0.0154537)
(-7.46809e-05 1.1475e-05 -0.0154775)
(-0.000107375 -1.0959e-06 -0.015468)
(-7.16339e-05 -7.77487e-06 -0.0154413)
(-1.7544e-05 -1.75541e-05 -0.0154151)
(3.04841e-05 -1.66076e-05 -0.0154065)
(4.99918e-05 1.37399e-08 -0.0154076)
(3.04819e-05 1.66334e-05 -0.0154065)
(-1.75479e-05 1.75751e-05 -0.015415)
(-7.16391e-05 7.7877e-06 -0.0154413)
(-0.00010738 1.09978e-06 -0.015468)
(-0.000228123 1.52281e-05 -0.0154733)
(-0.000137455 2.23959e-05 -0.0154155)
(-2.49206e-06 -2.50272e-06 -0.015373)
(0.000117887 -1.83424e-05 -0.0153799)
(0.000168103 1.4406e-08 -0.0153974)
(0.000117885 1.83695e-05 -0.0153799)
(-2.49645e-06 2.5248e-06 -0.015373)
(-0.000137461 -2.23825e-05 -0.0154155)
(-0.000228128 -1.5224e-05 -0.0154733)
(-0.000551158 5.67371e-05 -0.0154898)
(-0.000317848 9.26164e-05 -0.0153327)
(1.80813e-05 1.80705e-05 -0.0152319)
(0.000319636 -4.10572e-05 -0.0152726)
(0.000452028 1.47673e-08 -0.015337)
(0.000319634 4.1085e-05 -0.0152726)
(1.80766e-05 -1.80479e-05 -0.0152319)
(-0.000317855 -9.26026e-05 -0.0153327)
(-0.000551164 -5.6733e-05 -0.0154898)
(-0.00137028 0.000172368 -0.0154745)
(-0.000762772 0.000280332 -0.0150529)
(5.76072e-05 5.75968e-05 -0.0148078)
(0.000800424 -0.000123484 -0.0149379)
(0.00115901 1.48253e-08 -0.0151407)
(0.000800422 0.000123512 -0.0149379)
(5.76023e-05 -5.75741e-05 -0.0148078)
(-0.000762779 -0.000280318 -0.0150529)
(-0.00137029 -0.000172363 -0.0154745)
(-0.0033897 0.000478339 -0.0151655)
(-0.0017898 0.000759304 -0.0141568)
(0.000133037 0.000133027 -0.0136333)
(0.00189331 -0.000373979 -0.0139627)
(0.00289675 1.45628e-08 -0.014519)
(0.00189331 0.000374006 -0.0139627)
(0.000133032 -0.000133005 -0.0136333)
(-0.00178981 -0.000759291 -0.0141568)
(-0.00338971 -0.000478335 -0.0151655)
(-0.00806129 0.00118105 -0.0134034)
(-0.00387987 0.00181252 -0.011574)
(0.000251759 0.000251751 -0.0107531)
(0.0040827 -0.00100922 -0.0113357)
(0.00693405 1.39243e-08 -0.0124796)
(0.0040827 0.00100924 -0.0113357)
(0.000251753 -0.00025173 -0.0107531)
(-0.00387988 -0.00181251 -0.011574)
(-0.0080613 -0.00118105 -0.0134034)
(-0.016721 0.00230771 -0.00665624)
(-0.00690265 0.00340966 -0.00553421)
(0.000371359 0.000371354 -0.00506551)
(0.007199 -0.00210052 -0.00541508)
(0.0145637 1.28875e-08 -0.00615231)
(0.007199 0.00210054 -0.00541508)
(0.000371353 -0.000371335 -0.00506552)
(-0.00690266 -0.00340965 -0.00553422)
(-0.016721 -0.00230771 -0.00665625)
(-0.0166825 0.00230308 0.00386109)
(-0.00689104 0.00340325 0.00273087)
(0.000370888 0.000370885 0.00225855)
(0.0071869 -0.00209602 0.00261037)
(0.0145293 1.14911e-08 0.00335278)
(0.0071869 0.00209604 0.00261037)
(0.000370882 -0.000370868 0.00225854)
(-0.00689105 -0.00340324 0.00273086)
(-0.0166825 -0.00230308 0.00386108)
(-0.0080386 0.00117749 0.0105815)
(-0.00387043 0.00180712 0.00875485)
(0.00025086 0.00025086 0.00793432)
(0.00407206 -0.00100629 0.00851578)
(0.00691366 9.77486e-09 0.00965712)
(0.00407205 0.00100631 0.00851578)
(0.000250855 -0.000250845 0.00793432)
(-0.00387044 -0.00180711 0.00875484)
(-0.0080386 -0.00117748 0.0105815)
(-0.00338021 0.000476472 0.0123354)
(-0.00178551 0.000756117 0.0113291)
(0.000131812 0.000131816 0.0108061)
(0.00188697 -0.000373217 0.0111339)
(0.00288697 7.58532e-09 0.0116882)
(0.00188697 0.000373231 0.0111339)
(0.000131808 -0.000131804 0.0108061)
(-0.00178551 -0.000756109 0.0113291)
(-0.00338022 -0.000476469 0.0123354)
(-0.00136742 0.000171158 0.0126433)
(-0.000762024 0.000277824 0.0122222)
(5.56521e-05 5.56594e-05 0.0119764)
(0.000796009 -0.000124178 0.0121049)
(0.00115332 5.08979e-09 0.0123064)
(0.000796007 0.000124187 0.0121048)