/*--------------------------------*- C++ -*----------------------------------*\
  =========                 |
  \\      /  F ield         | OpenFOAM: The Open Source CFD Toolbox
   \\    /   O peration     | Website:  https://openfoam.org
    \\  /    A nd           | Version:  6
     \\/     M anipulation  |
\*---------------------------------------------------------------------------*/
FoamFile
{
    version     2.0;
    format      ascii;
    class       volScalarField;
    location    "0.6";
    object      alpha_air;
}
// * * * * * * * * * * * * * * * * * * * * * * * * * * * * * * * * * * * * * //

dimensions      [0 0 0 0 0 0 0];

internalField   nonuniform List<scalar> 
3029
(
1
1
0.999983
1.00013
0.998814
1.00013
0.999982
1
1
1
1
0.999985
1.00013
0.998664
1.00013
0.999984
1
1
1
1
0.999976
1.00014
0.998101
1.00014
0.999974
1
1
1
1
0.999959
1.00009
0.996933
1.00009
0.999956
1
1
0.999994
0.999994
0.999915
0.999879
0.994786
0.999876
0.999911
0.999989
0.999993
0.999958
0.999942
0.999792
0.999223
0.991057
0.999219
0.999786
0.999935
0.999956
0.999831
0.999761
0.999449
0.997581
0.984864
0.997576
0.999441
0.999751
0.999828
0.999447
0.999228
0.998497
0.993968
0.97504
0.993963
0.998488
0.999217
0.999443
0.998369
0.997786
0.996041
0.986858
0.960181
0.986852
0.99603
0.997771
0.998363
0.995632
0.994276
0.990468
0.974241
0.938777
0.974235
0.990456
0.99426
0.995625
0.989561
0.986812
0.979481
0.953898
0.909433
0.953892
0.979467
0.986794
0.989552
0.977866
0.972958
0.960414
0.923707
0.871049
0.923701
0.9604
0.972938
0.977856
0.958106
0.950223
0.930784
0.882232
0.823315
0.882227
0.930769
0.950201
0.958094
0.928494
0.916879
0.888509
0.826091
0.762344
0.826087
0.888495
0.916858
0.928481
0.888746
0.871981
0.831912
0.763348
0.70679
0.763345
0.8319
0.871959
0.888731
0.840891
0.820209
0.766067
0.610041
0.390805
0.61004
0.766056
0.820188
0.840875
0.790384
0.758306
0.602959
0.272047
0.135982
0.272048
0.602954
0.758287
0.790368
0.738862
0.682523
0.433731
0.116496
0.0741932
0.116497
0.433729
0.682507
0.738846
0.686188
0.611488
0.336389
0.0682856
0.0558743
0.068287
0.336388
0.611474
0.686172
0.633212
0.550467
0.283227
0.0534825
0.0475952
0.0534837
0.283226
0.550455
0.633197
0.580723
0.497046
0.249808
0.0482941
0.0418163
0.0482951
0.249807
0.497036
0.580708
0.529262
0.448452
0.224424
0.0456475
0.0369407
0.0456484
0.224424
0.448443
0.529249
0.479292
0.403167
0.202397
0.0434672
0.0326821
0.0434681
0.202396
0.403159
0.47928
0.431272
0.36062
0.182075
0.0411965
0.0289349
0.0411973
0.182075
0.360614
0.431261
0.385649
0.320705
0.16293
0.038724
0.0256375
0.0387247
0.162929
0.3207
0.38564
0.342832
0.283485
0.144837
0.0360742
0.0227446
0.0360749
0.144837
0.283481
0.342824
0.303168
0.249063
0.127824
0.0333366
0.0202357
0.0333371
0.127824
0.24906
0.30316
0.266925
0.217557
0.112038
0.0306827
0.0181511
0.0306832
0.112038
0.217555
0.266919
0.234262
0.189137
0.0977717
0.0284082
0.0166362
0.0284087
0.0977716
0.189135
0.234256
0.205177
0.164136
0.0859832
0.0273004
0.0162603
0.0273008
0.0859832
0.164135
0.205172
0.179595
0.143391
0.0766409
0.0274754
0.0172367
0.0274758
0.076641
0.14339
0.17959
0.156538
0.128003
0.0714816
0.0263588
0.0158767
0.0263591
0.0714818
0.128003
0.156534
0.132609
0.115839
0.0729026
0.0270065
0.0126996
0.0270067
0.0729026
0.115838
0.132606
0.0911924
0.0876913
0.0685064
0.0318964
0.0111969
0.0318964
0.0685062
0.0876903
0.09119
1
1.00002
0.999957
1.00007
0.997631
1.00007
0.999955
1.00002
1
1
1.00002
0.999952
1.00006
0.997269
1.00006
0.99995
1.00002
1
1
1.00002
0.999929
1.00001
0.996199
1.00001
0.999926
1.00002
1
1
1.00002
0.999881
0.999797
0.993999
0.999793
0.999876
1.00002
0.999999
0.999994
0.999989
0.999771
0.99911
0.990007
0.999105
0.999764
0.999981
0.999988
0.999941
0.999866
0.999478
0.99735
0.983313
0.997345
0.999469
0.999856
0.999933
0.99976
0.999512
0.998657
0.993519
0.972794
0.993512
0.998646
0.999499
0.999749
0.999228
0.998568
0.996531
0.986169
0.957195
0.986162
0.996519
0.998552
0.999214
0.997785
0.996227
0.991719
0.973504
0.93526
0.973497
0.991705
0.996209
0.997769
0.994275
0.991021
0.982225
0.953613
0.905901
0.953606
0.98221
0.991
0.994256
0.986811
0.980818
0.965703
0.92483
0.868392
0.924823
0.965686
0.980795
0.98679
0.972956
0.963145
0.939891
0.886037
0.822578
0.88603
0.939874
0.963121
0.972933
0.950221
0.935736
0.903143
0.837034
0.769219
0.837028
0.903126
0.93571
0.950197
0.916878
0.897228
0.854894
0.778057
0.708178
0.778052
0.854878
0.897203
0.916853
0.871979
0.847635
0.795371
0.712211
0.651805
0.712208
0.795356
0.84761
0.871954
0.820207
0.789826
0.730984
0.639778
0.547375
0.639776
0.730972
0.789802
0.820182
0.758303
0.729175
0.648069
0.464319
0.289967
0.46432
0.64806
0.729153
0.758279
0.682521
0.667138
0.551921
0.303407
0.149821
0.303408
0.551915
0.667118
0.682499
0.611485
0.606767
0.474021
0.221533
0.10313
0.221534
0.474016
0.606749
0.611466
0.550465
0.549867
0.415057
0.181221
0.0862517
0.181222
0.415053
0.549852
0.550447
0.497045
0.496476
0.367633
0.157679
0.0778853
0.157681
0.36763
0.496462
0.497029
0.448451
0.446224
0.326651
0.1405
0.0717754
0.140502
0.326648
0.446213
0.448436
0.403166
0.398916
0.289709
0.125887
0.0661899
0.125888
0.289707
0.398906
0.403153
0.360619
0.354544
0.255846
0.112638
0.0607821
0.112639
0.255844
0.354535
0.360608
0.320705
0.313178
0.224715
0.100409
0.0555643
0.10041
0.224714
0.313171
0.320695
0.283485
0.274871
0.196159
0.0891577
0.0506533
0.0891586
0.196158
0.274865
0.283477
0.249063
0.239606
0.170041
0.0789669
0.0462536
0.0789676
0.17004
0.239601
0.249056
0.217558
0.207302
0.146244
0.070046
0.042698
0.0700466
0.146244
0.207299
0.217552
0.189137
0.177728
0.12444
0.0626269
0.0403876
0.0626274
0.12444
0.177725
0.189132
0.164137
0.151326
0.105941
0.0579408
0.0405073
0.0579413
0.105942
0.151324
0.164133
0.143392
0.126506
0.0802935
0.0484301
0.0370361
0.0484307
0.0802944
0.126505
0.143388
0.128004
0.112566
0.0707085
0.0435067
0.0340525
0.0435074
0.0707097
0.112566
0.128001
0.11584
0.108666
0.0741853
0.0368526
0.0245239
0.0368531
0.074186
0.108665
0.115837
0.0876915
0.0889527
0.0728625
0.0351444
0.0139664
0.0351446
0.0728624
0.0889516
0.0876897
0.999983
0.999957
0.9998
1.00047
0.990865
1.00046
0.999797
0.999955
0.999983
0.999985
0.999952
0.999808
1.0002
0.989099
1.0002
0.999804
0.999949
0.999984
0.999975
0.999929
0.999825
0.999377
0.984806
0.999372
0.99982
0.999925
0.999973
0.999958
0.99988
0.999789
0.997382
0.977174
0.997376
0.999782
0.999874
0.999954
0.999914
0.99977
0.999457
0.993266
0.965317
0.99326
0.999449
0.999761
0.999908
0.99979
0.999476
0.998266
0.985756
0.948332
0.98575
0.998256
0.999465
0.999781
0.999447
0.998654
0.995191
0.97336
0.925406
0.973353
0.99518
0.998641
0.999435
0.998494
0.996528
0.988694
0.954548
0.895907
0.954542
0.988682
0.996512
0.99848
0.996038
0.991715
0.97684
0.927998
0.859483
0.927992
0.976826
0.991698
0.996022
0.990464
0.982221
0.957585
0.892839
0.816149
0.892834
0.957571
0.982202
0.990445
0.979476
0.965698
0.929185
0.848858
0.766375
0.848853
0.929171
0.965677
0.979456
0.960409
0.939886
0.890595
0.796632
0.711157
0.796629
0.890582
0.939865
0.960387
0.930779
0.903139
0.84179
0.737605
0.652181
0.737602
0.841778
0.903117
0.930756
0.888504
0.854889
0.784025
0.674284
0.592013
0.674282
0.784013
0.854868
0.888481
0.831907
0.795366
0.719919
0.609791
0.534151
0.60979
0.719908
0.795346
0.831884
0.766061
0.73098
0.654469
0.553063
0.494646
0.553062
0.65446
0.730961
0.766039
0.602954
0.648065
0.593067
0.496102
0.422109
0.496102
0.593059
0.648048
0.602937
0.433727
0.551917
0.535441
0.4292
0.331468
0.429201
0.535435
0.551903
0.433715
0.336386
0.474018
0.481678
0.370936
0.270954
0.370937
0.481673
0.474006
0.336376
0.283225
0.415054
0.43176
0.323978
0.231904
0.323979
0.431755
0.415044
0.283216
0.249806
0.367631
0.385264
0.284751
0.203275
0.284752
0.38526
0.36762
0.249799
0.224423
0.326649
0.341938
0.250464
0.179587
0.250465
0.341935
0.32664
0.224416
0.202396
0.289708
0.301715
0.219754
0.158676
0.219755
0.301712
0.289699
0.20239
0.182075
0.255845
0.26459
0.191945
0.139712
0.191946
0.264587
0.255837
0.182069
0.162929
0.224715
0.230519
0.166742
0.122418
0.166743
0.230517
0.224708
0.162924
0.144837
0.196159
0.19936
0.143941
0.106706
0.143942
0.199359
0.196153
0.144832
0.127824
0.170041
0.170829
0.123299
0.0925091
0.1233
0.170828
0.170036
0.12782
0.112038
0.146245
0.144441
0.104459
0.0797115
0.10446
0.144441
0.146241
0.112035
0.0977724
0.12444
0.119177
0.0867547
0.067977
0.0867557
0.119177
0.124437
0.0977694
0.085984
0.105942
0.0938846
0.0689146
0.0564398
0.0689156
0.0938851
0.10594
0.0859815
0.0766418
0.080294
0.049115
0.0390468
0.0347336
0.0390477
0.0491163
0.0802933
0.0766397
0.0714824
0.0707089
0.0707088
0.0714806
0.0729034
0.0741859
0.0734581
0.0464359
0.0279527
0.0464364
0.0734584
0.0741852
0.0729015
0.0685069
0.0728629
0.073688
0.0445892
0.0213342
0.0445898
0.0736876
0.0728616
0.0685055
0.0716992
0.0443089
0.0200404
0.04431
0.0716996
0.0685478
0.043039
0.0194894
0.0430398
0.0685489
0.0650407
0.0411787
0.0188586
0.0411789
0.0650417
0.061514
0.0391384
0.0181589
0.0391386
0.061515
0.0580946
0.0370959
0.017435
0.0370961
0.0580955
0.054822
0.0351153
0.0167139
0.0351156
0.0548229
0.0517052
0.0332165
0.0160061
0.0332168
0.0517061
0.0487415
0.0314027
0.0153154
0.0314031
0.0487424
0.0459333
0.0296778
0.0146453
0.0296782
0.0459342
0.0432277
0.0280091
0.0139823
0.0280096
0.0432285
0.0408805
0.0265582
0.0133996
0.0265588
0.0408814
0.0372559
0.0242838
0.0124244
0.0242845
0.0372568
1.00013
1.00007
1.00046
0.980582
0.915234
0.980577
1.00046
1.00007
1.00013
1.00013
1.00006
1.0002
0.977835
0.909253
0.97783
1.00019
1.00006
1.00013
1.00014
1.00001
0.999375
0.971395
0.896621
0.97139
0.999368
1
1.00013
1.00009
0.999793
0.997379
0.960402
0.877325
0.960396
0.997371
0.999786
1.00009
0.999876
0.999105
0.993263
0.943981
0.851678
0.943976
0.993254
0.999096
0.999869
0.999219
0.997345
0.985752
0.92132
0.820076
0.921316
0.985742
0.997333
0.999209
0.997576
0.993512
0.973356
0.891827
0.782975
0.891823
0.973345
0.993499
0.997564
0.993962
0.986161
0.954543
0.855245
0.740905
0.855242
0.954533
0.986147
0.993949
0.986851
0.973495
0.927993
0.811735
0.694505
0.811733
0.927983
0.97348
0.986836
0.974233
0.953604
0.892834
0.761901
0.644558
0.7619
0.892824
0.953587
0.974217
0.953889
0.92482
0.848853
0.70679
0.592026
0.70679
0.848844
0.924803
0.953871
0.923697
0.886027
0.796627
0.647878
0.538089
0.647879
0.796619
0.88601
0.923679
0.882222
0.837024
0.7376
0.587088
0.484195
0.587089
0.737593
0.837008
0.882203
0.826082
0.778048
0.67428
0.526896
0.432244
0.526898
0.674274
0.778032
0.826063
0.763339
0.712203
0.609787
0.470286
0.384344
0.470289
0.609782
0.712188
0.763321
0.610033
0.63977
0.553059
0.421051
0.345145
0.421054
0.553054
0.639757
0.610019
0.272043
0.464314
0.496098
0.383953
0.318238
0.383955
0.496093
0.464303
0.272036
0.116495
0.303403
0.429197
0.352453
0.29201
0.352456
0.429192
0.303396
0.116491
0.068285
0.221531
0.370934
0.320385
0.263805
0.320387
0.37093
0.221525
0.0682822
0.0534822
0.181219
0.323976
0.287876
0.235921
0.287878
0.323973
0.181215
0.0534796
0.0482938
0.157678
0.284749
0.256244
0.209567
0.256245
0.284746
0.157674
0.0482913
0.0456473
0.140499
0.250462
0.226378
0.185133
0.22638
0.250459
0.140496
0.0456449
0.0434671
0.125887
0.219753
0.198683
0.162692
0.198685
0.219749
0.125883
0.0434648
0.0411965
0.112638
0.191944
0.173328
0.14223
0.173331
0.191941
0.112635
0.0411943
0.0387241
0.100409
0.166742
0.150265
0.123649
0.150267
0.166739
0.100407
0.0387221
0.0360744
0.0891581
0.143941
0.129323
0.106796
0.129325
0.143939
0.0891556
0.0360725
0.0333368
0.0789675
0.123299
0.110216
0.0914466
0.110218
0.123297
0.0789652
0.0333351
0.030683
0.0700467
0.104459
0.0924798
0.0772471
0.0924815
0.104458
0.0700447
0.0306815
0.0284087
0.0626276
0.086755
0.07531
0.0635778
0.0753116
0.0867542
0.0626259
0.0284073
0.0273009
0.0579415
0.0689148
0.0569573
0.0490398
0.0569588
0.0689148
0.0579402
0.0272996
0.0274759
0.0484306
0.0390468
0.0313558
0.0283012
0.0313567
0.0390478
0.0484302
0.0274749
0.0263593
0.0435071
0.0435072
0.0263585
0.0270072
0.0368532
0.0464363
0.0451359
0.031014
0.0451367
0.0464365
0.0368528
0.0270062
0.031897
0.035145
0.0445897
0.0443743
0.0292605
0.0443753
0.0445892
0.0351439
0.0318961
0.0443094
0.0425595
0.0277702
0.042561
0.0443097
0.0430395
0.0404561
0.02644
0.0404572
0.0430404
0.0411791
0.0382975
0.0251429
0.038298
0.0411799
0.0391389
0.0361811
0.0238801
0.0361815
0.0391396
0.0370963
0.0341474
0.0226605
0.0341478
0.037097
0.0351157
0.0322089
0.0214896
0.0322093
0.0351164
0.0332168
0.0303673
0.0203686
0.0303677
0.0332174
0.0314031
0.0286194
0.0192965
0.0286198
0.0314036
0.0296781
0.0269658
0.0182746
0.0269662
0.0296786
0.0280094
0.0253752
0.0172838
0.0253756
0.0280099
0.0265585
0.0239949
0.0164189
0.0239952
0.0265589
0.024284
0.0218578
0.0150536
0.0218583
0.0242845
0.998812
0.997626
0.990859
0.915231
0.770351
0.915228
0.990854
0.997623
0.998812
0.99866
0.997263
0.989092
0.909249
0.76254
0.909246
0.989087
0.997258
0.998658
0.998096
0.996192
0.984798
0.896617
0.74714
0.896615
0.984792
0.996186
0.998092
0.996927
0.993991
0.977166
0.877322
0.725109
0.877319
0.977159
0.993984
0.996922
0.994779
0.989998
0.965308
0.851675
0.697681
0.851673
0.965301
0.989989
0.994772
0.991048
0.983302
0.948323
0.820073
0.665898
0.820071
0.948316
0.983293
0.99104
0.984854
0.972782
0.925397
0.782972
0.630558
0.782972
0.92539
0.972771
0.984845
0.975029
0.957182
0.895898
0.740903
0.592279
0.740903
0.895891
0.957171
0.975018
0.96017
0.935247
0.859475
0.694503
0.551612
0.694504
0.859468
0.935235
0.960158
0.938765
0.905888
0.816141
0.644557
0.509124
0.644558
0.816135
0.905875
0.938752
0.909421
0.86838
0.766368
0.592026
0.46547
0.592028
0.766362
0.868367
0.909407
0.871037
0.822565
0.71115
0.538088
0.421423
0.538091
0.711145
0.822553
0.871023
0.823303
0.769207
0.652175
0.484195
0.377918
0.484198
0.652171
0.769195
0.823289
0.762332
0.708168
0.592008
0.432244
0.336101
0.432248
0.592005
0.708156
0.762318
0.706779
0.651795
0.534146
0.384344
0.297358
0.384347
0.534144
0.651784
0.706765
0.3908
0.547367
0.494641
0.345145
0.26316
0.345148
0.494638
0.547357
0.390791
0.13598
0.289964
0.422105
0.318238
0.236329
0.318241
0.422101
0.289957
0.135976
0.0741927
0.149819
0.331465
0.29201
0.215556
0.292013
0.33146
0.149814
0.0741896
0.055874
0.103129
0.270951
0.263804
0.196747
0.263807
0.270948
0.103125
0.0558712
0.047595
0.086251
0.231902
0.23592
0.17843
0.235923
0.2319
0.0862472
0.0475924
0.0418161
0.0778847
0.203273
0.209567
0.160622
0.209569
0.203271
0.0778812
0.0418136
0.0369405
0.071775
0.179586
0.185132
0.143609
0.185134
0.179584
0.0717718
0.0369381
0.032682
0.0661895
0.158675
0.162692
0.127583
0.162694
0.158673
0.0661866
0.0326798
0.0289349
0.0607818
0.139712
0.14223
0.112692
0.142232
0.13971
0.0607792
0.0289327
0.0256375
0.0555642
0.122418
0.123649
0.098955
0.123651
0.122417
0.0555618
0.0256355
0.0227446
0.0506534
0.106706
0.106796
0.0863181
0.106798
0.106705
0.0506513
0.0227427
0.0202357
0.0462537
0.0925091
0.0914465
0.074666
0.0914481
0.0925084
0.0462519
0.020234
0.0181512
0.0426983
0.0797115
0.077247
0.0637824
0.0772485
0.0797112
0.0426967
0.0181497
0.0166363
0.0403879
0.0679771
0.0635777
0.0532409
0.0635791
0.0679771
0.0403867
0.0166349
0.0162604
0.0405076
0.0564399
0.0490397
0.042018
0.0490409
0.0564404
0.0405068
0.0162592
0.0172368
0.0370363
0.0347335
0.0283012
0.0255599
0.0283018
0.0347344
0.0370363
0.0172359
0.0158769
0.0340527
0.0340531
0.0158761
0.0126998
0.0245241
0.0279529
0.0310141
0.0273074
0.0310149
0.0279534
0.0245242
0.0126991
0.011197
0.0139666
0.0213344
0.0292606
0.0270486
0.0292615
0.0213345
0.0139661
0.0111965
0.0200406
0.0277703
0.0260345
0.0277704
0.0200404
0.0194896
0.0264402
0.0247832
0.0264392
0.0194892
0.0188588
0.0251431
0.0234934
0.025142
0.0188583
0.0181591
0.0238802
0.0222339
0.0238791
0.0181583
0.0174351
0.0226607
0.0210255
0.0226595
0.0174342
0.016714
0.0214897
0.0198736
0.0214884
0.0167129
0.0160063
0.0203687
0.0187781
0.0203673
0.0160051
0.0153156
0.0192966
0.0177369
0.0192951
0.0153143
0.0146454
0.0182748
0.0167502
0.0182731
0.014644
0.0139825
0.0172839
0.0157997
0.0172822
0.013981
0.0133997
0.016419
0.0149712
0.0164172
0.0133981
0.0124246
0.0150537
0.0136852
0.0150519
0.0124229
1.00013
1.00007
1.00046
0.980572
0.915226
0.98057
1.00046
1.00007
1.00013
1.00013
1.00005
1.00019
0.977825
0.909245
0.977823
1.00019
1.00005
1.00013
1.00013
1
0.999366
0.971385
0.896613
0.971383
0.999363
1
1.00013
1.00009
0.999786
0.997369
0.960391
0.877318
0.960389
0.997365
0.999782
1.00009
0.99987
0.999096
0.993252
0.943971
0.851672
0.943969
0.993247
0.999092
0.999867
0.999212
0.997335
0.985741
0.921311
0.820071
0.921309
0.985736
0.997329
0.999207
0.997568
0.993501
0.973344
0.891818
0.782971
0.891817
0.973339
0.993494
0.997562
0.993953
0.98615
0.954532
0.855238
0.740903
0.855237
0.954527
0.986142
0.993946
0.986841
0.973484
0.927983
0.81173
0.694505
0.81173
0.927977
0.973475
0.986833
0.974223
0.953593
0.892825
0.761898
0.644559
0.761898
0.89282
0.953583
0.974214
0.953879
0.92481
0.848845
0.706788
0.592028
0.706789
0.84884
0.9248
0.953869
0.923689
0.886018
0.796622
0.647878
0.538092
0.64788
0.796617
0.886008
0.923677
0.882215
0.837017
0.737596
0.587089
0.484199
0.587091
0.737593
0.837006
0.882203
0.826076
0.778042
0.674277
0.526898
0.432249
0.526901
0.674274
0.778032
0.826064
0.763335
0.712198
0.609785
0.470289
0.384348
0.470292
0.609783
0.712189
0.763322
0.610032
0.639768
0.553058
0.421054
0.345149
0.421057
0.553056
0.639758
0.610021
0.272044
0.464314
0.496098
0.383955
0.318242
0.383958
0.496095
0.464305
0.272038
0.116496
0.303404
0.429197
0.352456
0.292013
0.352459
0.429194
0.303398
0.116492
0.0682865
0.221532
0.370935
0.320387
0.263808
0.32039
0.370931
0.221526
0.0682832
0.0534834
0.18122
0.323977
0.287878
0.235923
0.287881
0.323974
0.181215
0.0534803
0.0482948
0.157679
0.28475
0.256245
0.20957
0.256248
0.284748
0.157674
0.0482919
0.0456481
0.1405
0.250463
0.22638
0.185135
0.226382
0.250462
0.140496
0.0456453
0.0434678
0.125887
0.219754
0.198685
0.162694
0.198687
0.219753
0.125883
0.0434652
0.0411969
0.112638
0.191945
0.17333
0.142232
0.173333
0.191944
0.112635
0.0411945
0.0387244
0.10041
0.166743
0.150267
0.123651
0.150269
0.166742
0.100407
0.0387221
0.0360746
0.0891581
0.143942
0.129325
0.106798
0.129326
0.143942
0.0891557
0.0360725
0.0333369
0.0789673
0.123299
0.110218
0.0914482
0.110219
0.123299
0.0789653
0.033335
0.0306829
0.0700464
0.10446
0.0924815
0.0772486
0.0924827
0.10446
0.0700448
0.0306812
0.0284085
0.0626274
0.0867556
0.0753115
0.0635791
0.0753126
0.0867561
0.0626262
0.028407
0.0273006
0.0579413
0.0689155
0.0569587
0.0490409
0.0569595
0.0689163
0.0579407
0.0272993
0.0274757
0.0484308
0.0390477
0.0313566
0.0283018
0.031357
0.0390485
0.0484308
0.0274747
0.026359
0.0435075
0.0435078
0.0263582
0.0270065
0.0368531
0.0464365
0.0451368
0.0310151
0.0451366
0.0464365
0.036853
0.0270057
0.0318964
0.0351446
0.04459
0.0443755
0.0292617
0.0443749
0.0445893
0.0351437
0.0318956
0.0443102
0.0425612
0.0277706
0.042558
0.0443083
0.04304
0.0404573
0.0264394
0.0404528
0.0430378
0.0411791
0.0382982
0.0251422
0.0382948
0.0411777
0.0391388
0.0361816
0.0238793
0.0361788
0.0391376
0.0370962
0.0341479
0.0226597
0.0341452
0.037095
0.0351157
0.0322094
0.0214886
0.0322066
0.0351145
0.0332169
0.0303678
0.0203675
0.0303649
0.0332156
0.0314033
0.0286199
0.0192953
0.0286169
0.0314018
0.0296784
0.0269663
0.0182733
0.0269632
0.0296768
0.0280097
0.0253757
0.0172824
0.0253725
0.0280081
0.0265589
0.0239953
0.0164174
0.0239921
0.0265573
0.0242846
0.0218583
0.015052
0.0218548
0.0242828
0.999982
0.999954
0.999794
1.00046
0.990852
1.00046
0.999793
0.999953
0.999982
0.999984
0.999948
0.999801
1.00019
0.989084
1.00019
0.999799
0.999947
0.999984
0.999973
0.999923
0.999816
0.999364
0.98479
0.999362
0.999815
0.999922
0.999973
0.999954
0.999872
0.999778
0.997366
0.977157
0.997365
0.999776
0.99987
0.999953
0.999907
0.999759
0.999443
0.993249
0.965299
0.993247
0.999441
0.999756
0.999905
0.999781
0.999462
0.99825
0.985737
0.948314
0.985736
0.998246
0.999459
0.999778
0.999435
0.998638
0.995173
0.97334
0.925388
0.973338
0.995169
0.998633
0.999431
0.99848
0.996509
0.988674
0.954528
0.895889
0.954526
0.98867
0.996504
0.998475
0.996021
0.991695
0.976818
0.927978
0.859467
0.927977
0.976814
0.991688
0.996016
0.990446
0.982199
0.957563
0.892821
0.816134
0.892819
0.957558
0.982192
0.990439
0.979457
0.965675
0.929163
0.848841
0.766361
0.84884
0.929158
0.965667
0.979449
0.960389
0.939863
0.890574
0.796617
0.711145
0.796617
0.89057
0.939855
0.960381
0.930758
0.903116
0.841771
0.737592
0.652171
0.737592
0.841767
0.903108
0.93075
0.888485
0.854868
0.784008
0.674273
0.592005
0.674274
0.784004
0.85486
0.888476
0.83189
0.795347
0.719904
0.609781
0.534144
0.609783
0.719901
0.795339
0.83188
0.766047
0.730964
0.654456
0.553054
0.494638
0.553056
0.654453
0.730956
0.766038
0.602947
0.648053
0.593056
0.496093
0.422102
0.496095
0.593054
0.648045
0.602938
0.433724
0.551909
0.535432
0.429192
0.331461
0.429194
0.53543
0.551902
0.433717
0.336384
0.474012
0.481671
0.37093
0.270948
0.370932
0.481669
0.474005
0.336378
0.283223
0.41505
0.431753
0.323973
0.231901
0.323975
0.431752
0.415043
0.283217
0.249804
0.367626
0.385258
0.284746
0.203272
0.284749
0.385258
0.367621
0.249799
0.224421
0.326646
0.341934
0.250459
0.179585
0.250462
0.341933
0.326641
0.224416
0.202394
0.289705
0.301711
0.21975
0.158674
0.219753
0.301711
0.2897
0.20239
0.182073
0.255843
0.264587
0.191942
0.139711
0.191945
0.264587
0.255838
0.182069
0.162928
0.224713
0.230517
0.16674
0.122418
0.166743
0.230517
0.22471
0.162924
0.144835
0.196157
0.199359
0.14394
0.106706
0.143943
0.199359
0.196154
0.144832
0.127823
0.17004
0.170828
0.123297
0.0925091
0.1233
0.170828
0.170037
0.12782
0.112037
0.146244
0.144441
0.104458
0.0797118
0.104461
0.144441
0.146242
0.112034
0.0977712
0.12444
0.119177
0.0867545
0.0679776
0.0867567
0.119177
0.124438
0.0977689
0.0859829
0.105942
0.0938853
0.068915
0.0564408
0.0689168
0.0938859
0.105941
0.085981
0.0766409
0.0802946
0.0491163
0.0390478
0.0347345
0.0390486
0.0491171
0.080294
0.0766393
0.0714817
0.0707099
0.0707094
0.0714803
0.0729027
0.0741863
0.0734588
0.0464366
0.0279537
0.046437
0.0734584
0.0741853
0.0729012
0.0685067
0.072863
0.0736882
0.0445894
0.0213347
0.0445898
0.0736879
0.0728617
0.0685054
0.0717002
0.0443099
0.0200407
0.0443088
0.0716989
0.0685495
0.0430405
0.0194895
0.0430383
0.0685471
0.0650422
0.0411801
0.0188585
0.0411781
0.0650399
0.0615155
0.0391398
0.0181585
0.039138
0.0615133
0.058096
0.0370972
0.0174344
0.0370954
0.0580939
0.0548233
0.0351165
0.0167132
0.0351148
0.0548213
0.0517065
0.0332176
0.0160053
0.0332159
0.0517045
0.0487428
0.0314038
0.0153145
0.0314022
0.0487409
0.0459346
0.0296787
0.0146442
0.0296771
0.0459327
0.0432289
0.02801
0.0139811
0.0280084
0.0432271
0.0408817
0.0265591
0.0133983
0.0265575
0.0408799
0.0372571
0.0242846
0.012423
0.024283
0.0372554
0.999999
1.00002
0.999954
1.00007
0.997621
1.00007
0.999953
1.00002
1
0.999999
1.00002
0.999948
1.00005
0.997257
1.00005
0.999947
1.00002
0.999999
0.999999
1.00002
0.999923
1
0.996185
1
0.999922
1.00002
0.999999
0.999998
1.00001
0.999871
0.999783
0.993982
0.999782
0.99987
1.00001
0.999997
0.999986
0.999977
0.999758
0.999093
0.989988
0.999091
0.999756
0.999975
0.999985
0.999931
0.999851
0.999461
0.99733
0.983291
0.997329
0.999459
0.999848
0.999928
0.999746
0.999493
0.998636
0.993495
0.972769
0.993494
0.998633
0.999489
0.999743
0.99921
0.998545
0.996507
0.986143
0.957169
0.986141
0.996504
0.998541
0.999207
0.997764
0.996201
0.991692
0.973476
0.935233
0.973475
0.991688
0.996196
0.99776
0.994252
0.990992
0.982195
0.953584
0.905874
0.953583
0.982192
0.990987
0.994247
0.986785
0.980786
0.965671
0.9248
0.868366
0.924799
0.965667
0.98078
0.986779
0.972929
0.963112
0.939859
0.886007
0.822552
0.886007
0.939855
0.963105
0.972922
0.950193
0.935702
0.903111
0.837006
0.769195
0.837006
0.903108
0.935695
0.950186
0.916849
0.897195
0.854863
0.778031
0.708156
0.778032
0.85486
0.897188
0.916842
0.871951
0.847603
0.795342
0.712187
0.651784
0.712189
0.795339
0.847597
0.871944
0.820181
0.789796
0.730958
0.639757
0.547357
0.639759
0.730956
0.78979
0.820173
0.75828
0.729148
0.648046
0.464304
0.289958
0.464306
0.648046
0.729142
0.758273
0.682502
0.667114
0.551902
0.303396
0.149815
0.303398
0.551902
0.667109
0.682494
0.611469
0.606746
0.474006
0.221526
0.103125
0.221527
0.474005
0.606741
0.611462
0.550451
0.549849
0.415044
0.181215
0.086248
0.181216
0.415044
0.549845
0.550444
0.497033
0.49646
0.36762
0.157675
0.0778819
0.157675
0.367622
0.496457
0.497026
0.448441
0.446211
0.32664
0.140497
0.0717725
0.140497
0.326642
0.446208
0.448435
0.403157
0.398905
0.289699
0.125884
0.0661872
0.125885
0.289701
0.398902
0.403152
0.360612
0.354535
0.255837
0.112635
0.0607798
0.112636
0.255839
0.354532
0.360607
0.320699
0.313171
0.224709
0.100407
0.0555625
0.100408
0.224711
0.313168
0.320695
0.28348
0.274865
0.196153
0.0891559
0.0506519
0.0891568
0.196155
0.274863
0.283476
0.24906
0.239602
0.170036
0.0789655
0.0462525
0.0789665
0.170038
0.2396
0.249056
0.217555
0.207299
0.146241
0.070045
0.0426973
0.070046
0.146243
0.207298
0.217552
0.189135
0.177726
0.124437
0.0626262
0.0403873
0.0626273
0.124439
0.177725
0.189133
0.164135
0.151325
0.10594
0.0579405
0.0405074
0.0579417
0.105941
0.151324
0.164133
0.143391
0.126506
0.0802935
0.0484304
0.0370367
0.0484315
0.0802946
0.126505
0.143389
0.128003
0.112566
0.070709
0.0435073
0.0340534
0.0435083
0.0707098
0.112565
0.128001
0.115839
0.108666
0.0741855
0.0368528
0.0245244
0.0368536
0.0741859
0.108665
0.115837
0.0876912
0.0889526
0.0728622
0.035144
0.0139663
0.0351444
0.0728622
0.0889517
0.0876901
1
1
0.999982
1.00013
0.998811
1.00013
0.999982
1
1
1
0.999999
0.999984
1.00013
0.998657
1.00013
0.999984
0.999999
1
1
0.999999
0.999973
1.00013
0.998092
1.00013
0.999973
0.999999
1
1
0.999998
0.999953
1.00009
0.996921
1.00009
0.999953
0.999997
0.999998
0.999992
0.999986
0.999906
0.999867
0.994771
0.999867
0.999905
0.999985
0.999989
0.999954
0.99993
0.999779
0.999208
0.991039
0.999207
0.999778
0.999928
0.99995
0.999825
0.999746
0.999433
0.997562
0.984844
0.997561
0.999431
0.999743
0.999821
0.999439
0.99921
0.998477
0.993947
0.975017
0.993946
0.998475
0.999207
0.999434
0.998358
0.997764
0.996018
0.986833
0.960157
0.986832
0.996016
0.99776
0.998352
0.995619
0.994251
0.990442
0.974214
0.938751
0.974213
0.990439
0.994247
0.995612
0.989546
0.986784
0.979452
0.953869
0.909406
0.953869
0.979449
0.98678
0.989539
0.97785
0.972928
0.960384
0.923677
0.871022
0.923677
0.960381
0.972922
0.977841
0.958088
0.950191
0.930752
0.882202
0.823288
0.882203
0.93075
0.950186
0.958079
0.928475
0.916847
0.888478
0.826063
0.762318
0.826064
0.888476
0.916842
0.928466
0.888726
0.871949
0.831882
0.763321
0.706765
0.763322
0.831881
0.871944
0.888717
0.84087
0.820178
0.766038
0.610019
0.390792
0.610021
0.766038
0.820173
0.840862
0.790363
0.758277
0.602937
0.272037
0.135977
0.272039
0.602938
0.758273
0.790355
0.738842
0.682497
0.433716
0.116492
0.0741903
0.116493
0.433717
0.682494
0.738834
0.686169
0.611465
0.336377
0.068283
0.0558719
0.0682839
0.336378
0.611462
0.686162
0.633194
0.550446
0.283217
0.0534802
0.047593
0.053481
0.283218
0.550444
0.633188
0.580706
0.497028
0.249799
0.0482919
0.0418142
0.0482926
0.2498
0.497027
0.580701
0.529247
0.448436
0.224417
0.0456454
0.0369387
0.045646
0.224417
0.448435
0.529242
0.479279
0.403153
0.20239
0.0434652
0.0326803
0.0434658
0.202391
0.403152
0.479274
0.43126
0.360608
0.182069
0.0411946
0.0289332
0.0411951
0.18207
0.360608
0.431256
0.38564
0.320696
0.162924
0.0387223
0.0256359
0.0387228
0.162925
0.320695
0.385636
0.342824
0.283477
0.144833
0.0360727
0.0227431
0.0360731
0.144833
0.283477
0.342821
0.303161
0.249057
0.127821
0.0333353
0.0202343
0.0333356
0.127821
0.249057
0.303158
0.266919
0.217552
0.112035
0.0306816
0.01815
0.0306819
0.112036
0.217552
0.266917
0.234257
0.189133
0.0977695
0.0284074
0.0166352
0.0284077
0.0977701
0.189133
0.234255
0.205173
0.164133
0.0859815
0.0272997
0.0162595
0.0273
0.0859821
0.164134
0.205172
0.179592
0.143389
0.0766397
0.027475
0.0172362
0.0274753
0.0766403
0.14339
0.17959
0.156535
0.128002
0.0714807
0.0263584
0.0158764
0.0263588
0.0714812
0.128002
0.156534
0.132607
0.115838
0.0729017
0.0270061
0.0126993
0.0270064
0.0729021
0.115838
0.132606
0.0911909
0.0876906
0.0685059
0.0318961
0.0111967
0.0318963
0.068506
0.0876903
0.0911908
)
;

boundaryField
{
    injectionXMinus
    {
        type            zeroGradient;
    }
    injectionXPlus
    {
        type            zeroGradient;
    }
    injectionYMinus
    {
        type            zeroGradient;
    }
    injectionYPlus
    {
        type            zeroGradient;
    }
    inletXMinus
    {
        type            fixedValue;
        value           uniform 1;
    }
    inletXPlus
    {
        type            fixedValue;
        value           uniform 1;
    }
    inletYMinus
    {
        type            fixedValue;
        value           uniform 1;
    }
    inletYPlus
    {
        type            fixedValue;
        value           uniform 1;
    }
    outlet
    {
        type            zeroGradient;
    }
    valve
    {
        type            zeroGradient;
    }
    walls
    {
        type            zeroGradient;
    }
}


// ************************************************************************* //
