/*--------------------------------*- C++ -*----------------------------------*\
  =========                 |
  \\      /  F ield         | OpenFOAM: The Open Source CFD Toolbox
   \\    /   O peration     | Website:  https://openfoam.org
    \\  /    A nd           | Version:  6
     \\/     M anipulation  |
\*---------------------------------------------------------------------------*/
FoamFile
{
    version     2.0;
    format      ascii;
    class       volScalarField;
    location    "0.6";
    object      alpha_exh;
}
// * * * * * * * * * * * * * * * * * * * * * * * * * * * * * * * * * * * * * //

dimensions      [0 0 0 0 0 0 0];

internalField   nonuniform List<scalar> 
3029
(
2.673e-07
1.45039e-07
1.73471e-05
-0.000131874
0.00118604
-0.000131351
1.75711e-05
2.57563e-07
-4.05855e-07
-3.2308e-07
-2.79187e-07
1.52492e-05
-0.00013207
0.00133622
-0.000131218
1.56453e-05
2.00795e-07
-4.09145e-07
-1.26625e-06
-1.83316e-06
2.42887e-05
-0.000138104
0.00189918
-0.000136653
2.5609e-05
-3.5496e-07
-1.13931e-06
-1.15522e-06
-2.69226e-06
4.10619e-05
-9.45055e-05
0.00306705
-9.22777e-05
4.37492e-05
2.46972e-07
-7.75055e-07
5.56225e-06
5.95983e-06
8.4657e-05
0.000120837
0.00521372
0.000123908
8.89497e-05
1.0852e-05
6.53206e-06
4.18814e-05
5.83091e-05
0.000208024
0.000776928
0.00894328
0.000780834
0.000213987
6.53349e-05
4.36093e-05
0.000169018
0.000239259
0.000551004
0.00241894
0.015136
0.00242363
0.000558675
0.000248699
0.00017194
0.000552934
0.000771762
0.00150298
0.00603143
0.0249596
0.0060368
0.00151228
0.000783495
0.000557034
0.00163107
0.00221437
0.00395868
0.0131428
0.0398206
0.0131486
0.00396956
0.00222854
0.0016368
0.00436836
0.00572425
0.00953274
0.0257543
0.0612119
0.0257605
0.00954498
0.0057405
0.00437551
0.0104386
0.013186
0.0205162
0.0461245
0.0906229
0.0461306
0.0205296
0.0132044
0.0104476
0.0221346
0.0270521
0.0396055
0.0761795
0.128653
0.0761851
0.0396196
0.0270719
0.022145
0.0418933
0.0497295
0.069098
0.118348
0.178264
0.118353
0.0691124
0.0497507
0.0419055
0.0714971
0.0833483
0.112211
0.17098
0.229093
0.170984
0.112225
0.08337
0.0715105
0.111358
0.127064
0.163613
0.251044
0.3431
0.251046
0.163626
0.127086
0.111373
0.158415
0.182294
0.262205
0.334072
0.191852
0.334073
0.262215
0.182314
0.158431
0.211901
0.251448
0.276633
0.042618
-0.135105
0.0426193
0.276641
0.251467
0.211917
0.269427
0.308861
0.223717
-0.0706193
-0.0994703
-0.0706185
0.223723
0.308877
0.269443
0.325903
0.354246
0.19601
-0.0984316
-0.0895681
-0.0984309
0.196015
0.354261
0.325919
0.37951
0.394921
0.195347
-0.0973641
-0.0835178
-0.097363
0.195354
0.394935
0.379525
0.430461
0.434201
0.210031
-0.0861074
-0.0776241
-0.0861058
0.210039
0.434214
0.430475
0.479204
0.472627
0.231602
-0.0711371
-0.0713287
-0.071135
0.23161
0.472638
0.479217
0.525873
0.50982
0.255578
-0.0548378
-0.0646451
-0.0548353
0.255586
0.50983
0.525885
0.570316
0.545229
0.279784
-0.0381295
-0.0576506
-0.0381266
0.279792
0.545238
0.570327
0.612243
0.578328
0.30308
-0.0213797
-0.0503839
-0.0213766
0.303088
0.578336
0.612253
0.651333
0.608627
0.324773
-0.00472063
-0.0428037
-0.00471744
0.32478
0.608634
0.651342
0.687291
0.635645
0.344399
0.0119913
-0.0346847
0.0119945
0.344406
0.635651
0.687299
0.719856
0.65891
0.361637
0.0289892
-0.0259165
0.0289923
0.361644
0.658915
0.719863
0.748788
0.67825
0.377784
0.0491623
-0.0135378
0.0491652
0.37779
0.678254
0.748794
0.77394
0.69435
0.394179
0.0719657
0.000238967
0.0719682
0.394184
0.694354
0.773945
0.795336
0.710461
0.425243
0.125896
0.0496554
0.125898
0.425246
0.710464
0.79534
0.817277
0.733895
0.459519
0.158602
0.0722069
0.158604
0.459522
0.733898
0.817281
0.845906
0.781745
0.522834
0.164747
0.0355462
0.164748
0.522836
0.781747
0.84591
0.895988
0.873067
0.713093
0.331065
0.0737439
0.331065
0.713094
0.873068
0.895991
1.13774e-07
-1.9533e-05
4.29438e-05
-7.22011e-05
0.00236906
-7.02923e-05
4.45265e-05
-1.84597e-05
-7.04749e-08
-2.62619e-07
-1.96478e-05
4.78111e-05
-6.12859e-05
0.0027312
-5.88615e-05
5.00266e-05
-1.77436e-05
2.52263e-07
-1.76898e-06
-2.27854e-05
7.05517e-05
-1.19593e-05
0.00380094
-8.80581e-06
7.38901e-05
-1.96029e-05
-7.56557e-08
-2.56871e-06
-2.09668e-05
0.000119174
0.000203195
0.00600102
0.000207244
0.0001241
-1.58633e-05
8.3766e-07
6.16786e-06
1.12503e-05
0.000228964
0.000890378
0.00999257
0.000895362
0.000235698
1.87349e-05
1.17737e-05
5.86254e-05
0.00013432
0.000522123
0.00264954
0.0166869
0.00265543
0.000530803
0.000144479
6.67301e-05
0.0002397
0.000488458
0.00134338
0.00648134
0.0272064
0.006488
0.00135395
0.000501391
0.000250538
0.000772339
0.00143211
0.00346899
0.013831
0.0428051
0.0138382
0.00348141
0.00144782
0.000785886
0.00221509
0.00377308
0.00828102
0.0264959
0.0647407
0.0265036
0.00829505
0.00379144
0.0022314
0.00572511
0.00897895
0.0177753
0.0463862
0.0940955
0.0463939
0.0177907
0.00899974
0.00574393
0.013187
0.0191814
0.0342951
0.0751717
0.131626
0.075179
0.0343114
0.0192043
0.0132083
0.0270532
0.0368586
0.0601219
0.113959
0.177329
0.113966
0.0601386
0.0368831
0.0270763
0.0497308
0.0642504
0.0967908
0.162962
0.231258
0.162968
0.0968074
0.0642759
0.0497555
0.0833497
0.102816
0.145447
0.222121
0.28941
0.222125
0.145463
0.102842
0.0833752
0.127066
0.152294
0.202968
0.285642
0.35988
0.285646
0.202982
0.15232
0.127092
0.182295
0.209689
0.275808
0.38322
0.410565
0.383222
0.27582
0.209713
0.182321
0.25145
0.275463
0.342541
0.311917
0.116487
0.311918
0.34255
0.275484
0.251474
0.308863
0.340493
0.371782
0.190278
-0.0259141
0.190279
0.37179
0.340512
0.308885
0.354248
0.397025
0.389578
0.133758
-0.0592862
0.13376
0.389585
0.397042
0.354268
0.394924
0.445867
0.409882
0.12152
-0.0554525
0.121523
0.409889
0.445882
0.394942
0.434204
0.489561
0.433907
0.130602
-0.0389286
0.130606
0.433914
0.489575
0.43422
0.472629
0.52969
0.45957
0.148413
-0.0181039
0.148418
0.459578
0.529703
0.472645
0.509822
0.566878
0.485072
0.169215
0.00398786
0.16922
0.485079
0.566889
0.509836
0.545231
0.60123
0.509306
0.190829
0.0265095
0.190834
0.509313
0.601239
0.545243
0.57833
0.632638
0.531723
0.212581
0.0494904
0.212585
0.531729
0.632646
0.578341
0.608629
0.660898
0.552059
0.234701
0.0735704
0.234706
0.552065
0.660905
0.608639
0.635647
0.685776
0.570414
0.258596
0.100703
0.258601
0.570419
0.685782
0.635656
0.658913
0.70669
0.586724
0.28694
0.134505
0.286944
0.586729
0.706695
0.65892
0.678253
0.723812
0.605347
0.330191
0.188091
0.330194
0.605351
0.723817
0.678259
0.694354
0.733622
0.61899
0.390287
0.265668
0.39029
0.618992
0.733625
0.694359
0.710464
0.747049
0.700131
0.576204
0.502305
0.576205
0.700132
0.747051
0.710469
0.733899
0.754533
0.725628
0.641636
0.582786
0.641636
0.725628
0.754535
0.733903
0.781748
0.782417
0.678883
0.480845
0.392358
0.480846
0.678883
0.782419
0.781751
0.873068
0.879141
0.765362
0.401642
0.141033
0.401642
0.765363
0.879143
0.873071
1.73262e-05
4.3163e-05
0.000199849
-0.000466314
0.00913473
-0.000462779
0.000202871
4.49562e-05
1.73594e-05
1.53389e-05
4.82198e-05
0.000192204
-0.00020106
0.0109009
-0.000196912
0.000196105
5.09012e-05
1.59268e-05
2.46135e-05
7.12263e-05
0.000174588
0.000622711
0.0151941
0.000627536
0.000179664
7.53109e-05
2.65797e-05
4.17344e-05
0.000120226
0.000210945
0.00261801
0.0228262
0.00262353
0.000217501
0.000126304
4.57573e-05
8.5776e-05
0.000230483
0.000542851
0.00673381
0.0346831
0.00673994
0.00055101
0.000238809
9.2101e-05
0.000209655
0.000524154
0.00173397
0.0142435
0.0516678
0.0142501
0.00174375
0.000534935
0.000218515
0.000553179
0.00134593
0.00480862
0.0266399
0.074594
0.0266466
0.00481987
0.00135911
0.000564536
0.0015057
0.00347204
0.0113056
0.0454519
0.104093
0.0454585
0.0113181
0.0034876
0.00151959
0.00396194
0.00828453
0.0231602
0.0720015
0.140517
0.0720077
0.0231736
0.00830219
0.00397822
0.00953651
0.0177792
0.0424154
0.107161
0.183851
0.107167
0.0424293
0.0177987
0.00955504
0.0205205
0.0342993
0.0708142
0.15114
0.233622
0.151145
0.0708281
0.0343202
0.0205409
0.0396102
0.0601262
0.109409
0.203379
0.288861
0.203383
0.109422
0.060148
0.0396322
0.0691029
0.0967953
0.158193
0.262334
0.347715
0.262336
0.158205
0.0968172
0.0691259
0.112216
0.145451
0.216036
0.32603
0.408619
0.326032
0.216048
0.145473
0.11224
0.163618
0.202972
0.27992
0.388696
0.462018
0.388697
0.279931
0.202993
0.163641
0.262211
0.275813
0.345572
0.452859
0.528239
0.452859
0.345581
0.275832
0.262232
0.276639
0.342545
0.409148
0.499451
0.498655
0.499451
0.409155
0.342562
0.276656
0.223722
0.371787
0.463714
0.507394
0.409667
0.507395
0.463721
0.371801
0.223735
0.196014
0.389582
0.508454
0.511016
0.366648
0.511017
0.50846
0.389594
0.196026
0.19535
0.409885
0.546607
0.522436
0.361731
0.522437
0.546612
0.409896
0.195361
0.210034
0.43391
0.580505
0.540107
0.376186
0.540109
0.58051
0.433921
0.210045
0.231605
0.459574
0.611148
0.560409
0.398457
0.560412
0.611152
0.459584
0.231616
0.255581
0.485076
0.638814
0.581007
0.42308
0.581009
0.638818
0.485086
0.255591
0.279787
0.50931
0.66358
0.600638
0.447818
0.60064
0.663583
0.509319
0.279796
0.303084
0.531727
0.6855
0.618997
0.472146
0.618999
0.685503
0.531735
0.303093
0.324777
0.552063
0.704656
0.636444
0.496761
0.636446
0.704658
0.55207
0.324785
0.344404
0.570419
0.721293
0.654101
0.523751
0.654103
0.721295
0.570425
0.344411
0.361642
0.586729
0.735482
0.674495
0.55772
0.674496
0.735484
0.586735
0.361649
0.37779
0.605353
0.750751
0.703948
0.608893
0.703949
0.750752
0.605357
0.377795
0.394185
0.618995
0.761638
0.756746
0.69948
0.756747
0.761639
0.618998
0.394189
0.425249
0.700136
0.897574
0.921599
0.923346
0.921598
0.897573
0.700137
0.425252
0.459525
0.725632
0.725632
0.459528
0.522841
0.678888
0.736571
0.631766
0.531537
0.631766
0.736572
0.678889
0.522843
0.713098
0.765367
0.777358
0.561962
0.348852
0.561961
0.77736
0.765369
0.7131
0.795169
0.562215
0.314592
0.562214
0.79517
0.802955
0.570788
0.31531
0.570788
0.802955
0.806668
0.578052
0.323323
0.578052
0.806667
0.80884
0.583942
0.332733
0.583942
0.80884
0.810444
0.589172
0.34238
0.589172
0.810444
0.811835
0.59417
0.352111
0.59417
0.811834
0.813139
0.599115
0.361917
0.599115
0.813139
0.814411
0.604098
0.371844
0.604098
0.81441
0.815655
0.609073
0.381755
0.609073
0.815654
0.816951
0.614357
0.392245
0.614357
0.81695
0.818046
0.618686
0.40081
0.618686
0.818046
0.820103
0.627219
0.417592
0.627219
0.820103
-0.000131653
-7.08657e-05
-0.000464657
0.0194184
0.0847657
0.0194229
-0.000459621
-6.77002e-05
-0.000131275
-0.000131227
-5.93127e-05
-0.000198976
0.0221647
0.0907472
0.0221696
-0.000193114
-5.51098e-05
-0.00012938
-0.000136549
-9.18694e-06
0.000625283
0.0286046
0.103379
0.0286097
0.000632128
-3.60274e-06
-0.000133228
-9.20777e-05
0.000206946
0.00262113
0.0395983
0.122675
0.0396035
0.00262906
0.000214281
-8.68541e-05
0.000124264
0.000895214
0.00673748
0.056019
0.148322
0.056024
0.00674644
0.000904398
0.000131404
0.000781411
0.00265548
0.0142477
0.0786796
0.179924
0.0786842
0.0142575
0.00266656
0.000790665
0.00242449
0.00648832
0.0266444
0.108173
0.217025
0.108177
0.0266548
0.00650117
0.0024357
0.006038
0.0138389
0.0454568
0.144755
0.259095
0.144758
0.0454674
0.0138533
0.00605121
0.0131503
0.0265046
0.0720066
0.188265
0.305495
0.188267
0.072017
0.0265204
0.0131652
0.0257626
0.0463955
0.107166
0.238099
0.355443
0.2381
0.107176
0.0464121
0.0257792
0.0461335
0.0751813
0.151145
0.29321
0.407973
0.29321
0.151154
0.0751984
0.0461512
0.0761889
0.113969
0.203384
0.352124
0.461917
0.352124
0.203392
0.113986
0.0762074
0.118358
0.162972
0.262338
0.412903
0.515777
0.412901
0.262345
0.162988
0.118376
0.170989
0.22213
0.326035
0.47313
0.567884
0.473128
0.32604
0.222145
0.171008
0.251053
0.285651
0.3887
0.529708
0.615147
0.529705
0.388705
0.285665
0.25107
0.33408
0.383228
0.452862
0.578296
0.655911
0.578294
0.452867
0.383241
0.334095
0.0426218
0.311923
0.499455
0.620728
0.689991
0.620726
0.49946
0.311934
0.0426302
-0.0706177
0.190282
0.507398
0.65693
0.709246
0.656927
0.507403
0.190291
-0.0706126
-0.0984308
0.133761
0.51102
0.687535
0.724209
0.687533
0.511023
0.133768
-0.0984264
-0.0973635
0.121523
0.522439
0.714336
0.7403
0.714334
0.522441
0.121529
-0.097359
-0.0861069
0.130605
0.54011
0.738421
0.757549
0.73842
0.540113
0.130611
-0.0861021
-0.0711368
0.148416
0.560413
0.760154
0.774763
0.760152
0.560416
0.148421
-0.0711317
-0.0548376
0.169218
0.581011
0.779633
0.791094
0.779631
0.581013
0.169223
-0.0548324
-0.0381294
0.190832
0.600642
0.796924
0.806117
0.796922
0.600644
0.190837
-0.0381242
-0.0213798
0.212584
0.619001
0.812207
0.819804
0.812205
0.619003
0.212588
-0.0213748
-0.00472092
0.234704
0.636449
0.825832
0.832468
0.825831
0.63645
0.234709
-0.00471617
0.0119908
0.2586
0.654106
0.838434
0.844816
0.838432
0.654107
0.258604
0.0119952
0.0289886
0.286944
0.6745
0.851371
0.85833
0.851369
0.674501
0.286947
0.0289926
0.0491617
0.330195
0.703954
0.866856
0.875546
0.866854
0.703954
0.330198
0.0491651
0.0719652
0.390293
0.756752
0.894359
0.903738
0.894358
0.756751
0.390294
0.0719679
0.125896
0.576209
0.921602
0.929883
0.937187
0.929882
0.921601
0.576209
0.125898
0.158603
0.641641
0.64164
0.158604
0.164749
0.480849
0.63177
0.692749
0.637864
0.692748
0.63177
0.480849
0.164749
0.331069
0.401646
0.561966
0.661653
0.5883
0.661652
0.561966
0.401647
0.331069
0.56222
0.644875
0.56456
0.644873
0.562219
0.570793
0.640061
0.558086
0.64006
0.570791
0.578057
0.639896
0.558411
0.639895
0.578055
0.583946
0.641375
0.561185
0.641374
0.583945
0.589176
0.643445
0.564833
0.643444
0.589175
0.594174
0.645774
0.568836
0.645773
0.594173
0.599119
0.648258
0.573026
0.648258
0.599118
0.604101
0.650884
0.577371
0.650883
0.604101
0.609076
0.653589
0.581778
0.653588
0.609076
0.614361
0.656596
0.586567
0.656595
0.61436
0.618689
0.659028
0.590431
0.659027
0.618689
0.627222
0.664259
0.598455
0.664258
0.627222
0.00118798
0.00237365
0.00914073
0.0847694
0.229649
0.0847721
0.00914611
0.00237738
0.0011883
0.00133951
0.0027369
0.0109076
0.0907511
0.23746
0.0907539
0.0109135
0.00274167
0.00134197
0.00190374
0.00380786
0.0152016
0.103383
0.25286
0.103385
0.015208
0.00381377
0.0019077
0.00307292
0.00600924
0.0228343
0.122678
0.274891
0.122681
0.0228412
0.00601643
0.00307845
0.00522091
0.0100021
0.0346916
0.148325
0.302319
0.148327
0.0346989
0.0100105
0.00522785
0.00895175
0.0166976
0.0516766
0.179927
0.334102
0.179929
0.0516841
0.0167073
0.00896023
0.0151456
0.0272181
0.0746029
0.217028
0.369442
0.217028
0.0746104
0.0272288
0.0151555
0.0249702
0.0428175
0.104102
0.259097
0.407721
0.259097
0.104109
0.0428292
0.0249815
0.0398321
0.0647536
0.140525
0.305497
0.448388
0.305496
0.140532
0.0647659
0.0398445
0.061224
0.0941085
0.183859
0.355444
0.490876
0.355442
0.183865
0.0941212
0.0612374
0.0906352
0.131639
0.23363
0.407973
0.53453
0.407971
0.233635
0.131651
0.0906493
0.128666
0.177341
0.288867
0.461917
0.578577
0.461915
0.288872
0.177354
0.12868
0.178276
0.231269
0.34772
0.515778
0.622081
0.515775
0.347724
0.231282
0.178291
0.229104
0.28942
0.408624
0.567884
0.663894
0.567881
0.408627
0.289432
0.229118
0.343111
0.35989
0.462023
0.615147
0.702727
0.615143
0.462025
0.359901
0.343125
0.191858
0.410573
0.528244
0.655911
0.73626
0.655908
0.528247
0.410583
0.191868
-0.135103
0.116491
0.498659
0.689992
0.765407
0.689989
0.498662
0.116499
-0.135099
-0.0994699
-0.0259122
0.40967
0.709246
0.791528
0.709243
0.409674
-0.025907
-0.0994667
-0.0895679
-0.0592851
0.366651
0.72421
0.813878
0.724207
0.366654
-0.0592803
-0.0895648
-0.0835178
-0.0554519
0.361733
0.740301
0.832713
0.740297
0.361735
-0.0554472
-0.0835145
-0.0776244
-0.0389283
0.376188
0.75755
0.848822
0.757547
0.376189
-0.0389237
-0.0776208
-0.0713293
-0.018104
0.39846
0.774765
0.862856
0.774761
0.39846
-0.0180996
-0.0713255
-0.0646461
0.00398728
0.423083
0.791096
0.875185
0.791092
0.423083
0.00399147
-0.0646422
-0.0576522
0.0265085
0.447821
0.806119
0.886082
0.806115
0.44782
0.0265124
-0.0576483
-0.0503863
0.0494889
0.472149
0.819806
0.895693
0.819802
0.472148
0.0494925
-0.0503824
-0.0428069
0.0735684
0.496764
0.83247
0.904138
0.832467
0.496763
0.0735716
-0.0428032
-0.0346887
0.100701
0.523754
0.844818
0.911577
0.844815
0.523753
0.100704
-0.0346853
-0.0259216
0.134502
0.557723
0.858332
0.918302
0.85833
0.557722
0.134504
-0.0259184
-0.0135437
0.188088
0.608896
0.875548
0.924822
0.875546
0.608895
0.18809
-0.0135408
0.000232443
0.265666
0.699484
0.90374
0.932768
0.903738
0.699482
0.265667
0.000234555
0.0496491
0.502306
0.923349
0.937187
0.948205
0.937187
0.923348
0.502305
0.0496504
0.0722004
0.582787
0.582786
0.0722007
0.0355386
0.392356
0.531538
0.637864
0.681208
0.637862
0.531536
0.392355
0.0355391
0.0737355
0.141025
0.348848
0.588299
0.678544
0.588298
0.348848
0.141026
0.0737353
0.314588
0.564559
0.674669
0.564559
0.314588
0.315306
0.558085
0.672506
0.558085
0.315307
0.323319
0.55841
0.671677
0.558411
0.32332
0.332729
0.561184
0.671602
0.561185
0.33273
0.342376
0.564831
0.671929
0.564832
0.342377
0.352107
0.568835
0.672516
0.568836
0.352109
0.361913
0.573025
0.673304
0.573026
0.361915
0.37184
0.57737
0.674289
0.577371
0.371842
0.381751
0.581777
0.675419
0.581778
0.381753
0.392241
0.586566
0.676873
0.586566
0.392243
0.400807
0.590429
0.677992
0.59043
0.400809
0.417589
0.598454
0.681061
0.598455
0.417591
-0.000130234
-6.69543e-05
-0.00045765
0.0194279
0.0847736
0.0194298
-0.000455276
-6.55367e-05
-0.000130479
-0.000129381
-5.47424e-05
-0.000191096
0.0221749
0.0907554
0.0221769
-0.000188364
-5.27538e-05
-0.000128591
-0.000133711
-3.55344e-06
0.000634164
0.0286152
0.103387
0.0286173
0.000637379
-8.35322e-07
-0.000132164
-8.79423e-05
0.000213908
0.00263104
0.039609
0.122682
0.0396111
0.00263485
0.000217591
-8.53584e-05
0.000129766
0.000903544
0.00674829
0.0560293
0.148328
0.0560313
0.00675269
0.000908283
0.000133345
0.00078821
0.00266508
0.0142591
0.0786891
0.179929
0.0786908
0.014264
0.00267095
0.000793029
0.00243244
0.00649895
0.026656
0.108182
0.217029
0.108183
0.0266613
0.00650591
0.00243839
0.00604688
0.0138502
0.045468
0.144762
0.259097
0.144763
0.0454735
0.0138582
0.00605412
0.0131598
0.0265162
0.072017
0.18827
0.305495
0.18827
0.0720225
0.0265251
0.0131681
0.0257724
0.0464069
0.107175
0.238102
0.355442
0.238102
0.107181
0.0464164
0.0257819
0.046143
0.075192
0.151153
0.293211
0.40797
0.29321
0.151158
0.0752019
0.0461534
0.0761975
0.113978
0.20339
0.352124
0.461914
0.352123
0.203395
0.113988
0.0762088
0.118365
0.16298
0.262342
0.412901
0.515774
0.412899
0.262346
0.16299
0.118377
0.170995
0.222136
0.326037
0.473128
0.56788
0.473126
0.32604
0.222146
0.171007
0.251057
0.285655
0.388701
0.529705
0.615142
0.529702
0.388704
0.285665
0.251069
0.334082
0.38323
0.452863
0.578293
0.655907
0.57829
0.452865
0.38324
0.334093
0.042623
0.311924
0.499455
0.620726
0.689988
0.620722
0.499458
0.311933
0.0426296
-0.0706173
0.190283
0.507398
0.656927
0.709243
0.656924
0.507401
0.19029
-0.070613
-0.0984305
0.133762
0.51102
0.687533
0.724206
0.68753
0.511022
0.133768
-0.0984269
-0.097363
0.121524
0.522439
0.714334
0.740297
0.714331
0.52244
0.121529
-0.0973593
-0.0861062
0.130607
0.540111
0.73842
0.757547
0.738417
0.540111
0.130611
-0.0861025
-0.071136
0.148417
0.560413
0.760153
0.774762
0.76015
0.560413
0.148421
-0.0711322
-0.0548369
0.169219
0.58101
0.779631
0.791093
0.779629
0.58101
0.169222
-0.0548331
-0.038129
0.190832
0.600641
0.796922
0.806116
0.79692
0.600639
0.190835
-0.0381254
-0.02138
0.212583
0.619
0.812206
0.819803
0.812204
0.618998
0.212585
-0.0213765
-0.00472195
0.234702
0.636446
0.825831
0.832468
0.825829
0.636445
0.234704
-0.00471866
0.0119887
0.258596
0.654103
0.838433
0.844817
0.838431
0.654101
0.258598
0.0119918
0.0289853
0.286938
0.674496
0.85137
0.858331
0.851368
0.674495
0.286939
0.0289881
0.0491569
0.330188
0.703949
0.866855
0.875547
0.866854
0.703947
0.330189
0.0491594
0.0719589
0.390284
0.756747
0.894359
0.90374
0.894358
0.756746
0.390284
0.0719606
0.125888
0.576202
0.921601
0.929884
0.937188
0.929883
0.9216
0.576201
0.125889
0.158594
0.641634
0.641633
0.158594
0.164736
0.48084
0.631762
0.692745
0.637863
0.692745
0.631762
0.480839
0.164737
0.331053
0.401631
0.561954
0.661647
0.588298
0.661648
0.561956
0.401632
0.331054
0.562207
0.644867
0.564559
0.644871
0.562209
0.57078
0.640054
0.558085
0.640059
0.570783
0.578044
0.639889
0.558411
0.639893
0.578047
0.583934
0.641368
0.561185
0.641372
0.583937
0.589165
0.643438
0.564832
0.643441
0.589167
0.594162
0.645768
0.568836
0.645771
0.594165
0.599107
0.648253
0.573025
0.648255
0.599109
0.60409
0.650878
0.577371
0.650881
0.604093
0.609066
0.653583
0.581777
0.653586
0.609068
0.61435
0.65659
0.586566
0.656593
0.614353
0.618679
0.659022
0.59043
0.659025
0.618681
0.627212
0.664253
0.598454
0.664256
0.627214
1.78621e-05
4.62796e-05
0.00020565
-0.000456228
0.00914817
-0.000455043
0.000206668
4.68391e-05
1.77232e-05
1.6085e-05
5.21573e-05
0.000199302
-0.000189434
0.0109156
-0.000188117
0.000200553
5.30556e-05
1.62663e-05
2.68948e-05
7.68413e-05
0.000183532
0.000636176
0.0152102
0.000637665
0.000185133
7.81953e-05
2.74611e-05
4.62459e-05
0.000128235
0.00022225
0.00263351
0.0228435
0.00263519
0.000224319
0.000130249
4.74995e-05
9.28251e-05
0.000241203
0.000556724
0.00675124
0.0347011
0.00675309
0.000559332
0.000243993
9.47279e-05
0.000219277
0.000537705
0.00175038
0.0142625
0.0516863
0.0142645
0.00175355
0.000541355
0.000222089
0.000565338
0.00136218
0.00482729
0.0266599
0.0746124
0.0266618
0.00483099
0.00136673
0.000568934
0.00152021
0.0034908
0.0113261
0.0454722
0.104111
0.045474
0.0113303
0.00349623
0.00152481
0.00397861
0.00830537
0.0231819
0.0720215
0.140533
0.072023
0.0231863
0.00831165
0.00398403
0.00955493
0.0178017
0.0424376
0.10718
0.183867
0.107181
0.0424423
0.0178086
0.00956135
0.0205402
0.0343226
0.0708361
0.151157
0.233636
0.151158
0.0708408
0.0343302
0.0205474
0.0396305
0.0601497
0.10943
0.203395
0.288873
0.203395
0.109434
0.0601577
0.0396386
0.0691233
0.0968181
0.158212
0.262347
0.347724
0.262347
0.158216
0.0968263
0.0691318
0.112236
0.145473
0.216053
0.326042
0.408627
0.32604
0.216057
0.145481
0.112245
0.163635
0.202991
0.279935
0.388706
0.462025
0.388704
0.279939
0.202999
0.163645
0.262224
0.275828
0.345584
0.452867
0.528246
0.452865
0.345587
0.275836
0.262234
0.276648
0.342557
0.409159
0.499459
0.498662
0.499458
0.409161
0.342565
0.276657
0.223728
0.371796
0.463723
0.507402
0.409673
0.507401
0.463725
0.371803
0.223735
0.196019
0.38959
0.508462
0.511022
0.366654
0.511022
0.508464
0.389596
0.196025
0.195356
0.409892
0.546614
0.522441
0.361735
0.522441
0.546615
0.409898
0.195362
0.21004
0.433917
0.580511
0.540112
0.376189
0.540112
0.580512
0.433922
0.210045
0.23161
0.459579
0.611153
0.560415
0.39846
0.560414
0.611154
0.459583
0.231615
0.255585
0.48508
0.638818
0.581012
0.423083
0.581011
0.638819
0.485083
0.25559
0.27979
0.509313
0.663583
0.600643
0.447821
0.600642
0.663584
0.509316
0.279794
0.303086
0.531728
0.685502
0.619002
0.472149
0.619001
0.685503
0.531731
0.303089
0.324777
0.552063
0.704657
0.636449
0.496764
0.636448
0.704658
0.552065
0.32478
0.344402
0.570416
0.721293
0.654106
0.523755
0.654105
0.721294
0.570418
0.344404
0.361638
0.586725
0.735482
0.6745
0.557724
0.674499
0.735482
0.586727
0.36164
0.377783
0.605346
0.750751
0.703953
0.608897
0.703952
0.750751
0.605348
0.377785
0.394175
0.618987
0.761637
0.756751
0.699485
0.75675
0.761636
0.618988
0.394177
0.425238
0.700129
0.897574
0.921602
0.92335
0.921601
0.897573
0.700129
0.425239
0.459513
0.725625
0.725625
0.459514
0.522827
0.678878
0.736567
0.631766
0.531537
0.631766
0.736567
0.678879
0.522828
0.713088
0.765358
0.777355
0.56196
0.348847
0.56196
0.777355
0.765359
0.713089
0.795165
0.562212
0.314587
0.562214
0.795167
0.80295
0.570784
0.315305
0.570787
0.802953
0.806662
0.578048
0.323318
0.578051
0.806665
0.808835
0.583938
0.332728
0.583941
0.808838
0.810439
0.589168
0.342376
0.589171
0.810442
0.81183
0.594166
0.352107
0.594169
0.811832
0.813134
0.599111
0.361913
0.599113
0.813136
0.814405
0.604094
0.37184
0.604096
0.814408
0.81565
0.609069
0.381751
0.609072
0.815652
0.816945
0.614354
0.392241
0.614356
0.816948
0.818041
0.618682
0.400807
0.618685
0.818043
0.820098
0.627215
0.417589
0.627218
0.8201
5.66776e-07
-1.72913e-05
4.63442e-05
-6.60038e-05
0.00237867
-6.54137e-05
4.68469e-05
-1.69458e-05
4.2733e-07
6.31164e-07
-1.63736e-05
5.24479e-05
-5.32807e-05
0.00274302
-5.26278e-05
5.30606e-05
-1.57715e-05
8.14614e-07
6.58673e-07
-1.77055e-05
7.73505e-05
-1.4633e-06
0.00381521
-6.76227e-07
7.82012e-05
-1.68059e-05
1.15217e-06
2.12846e-06
-1.31033e-05
0.000129061
0.000216834
0.006018
0.000217801
0.000130256
-1.16965e-05
3.20156e-06
1.37756e-05
2.25539e-05
0.000242378
0.000907387
0.0100122
0.000908557
0.000244001
2.45385e-05
1.53553e-05
6.93654e-05
0.000149409
0.000539302
0.00266993
0.0167091
0.00267128
0.000541361
0.000152093
7.17354e-05
0.000253825
0.000507395
0.00136421
0.00650482
0.0272306
0.00650631
0.00136674
0.000510766
0.000256791
0.000789639
0.00145478
0.00349329
0.0138571
0.042831
0.0138587
0.00349623
0.00145888
0.000793487
0.00223559
0.0037992
0.00830832
0.0265241
0.0647676
0.0265256
0.00831164
0.00380397
0.00224005
0.00574829
0.00900808
0.0178051
0.0464157
0.0941227
0.0464169
0.0178086
0.0090135
0.00575366
0.0132127
0.019213
0.0343265
0.0752016
0.131653
0.0752024
0.0343302
0.0192189
0.0132187
0.0270806
0.0368918
0.060154
0.113989
0.177355
0.113989
0.0601577
0.0368981
0.0270873
0.0497594
0.0642843
0.0968227
0.16299
0.231282
0.16299
0.0968262
0.0642909
0.0497665
0.0833784
0.10285
0.145478
0.222147
0.289432
0.222146
0.145481
0.102857
0.083386
0.127094
0.152327
0.202997
0.285666
0.359901
0.285665
0.202999
0.152333
0.127102
0.182321
0.209719
0.275834
0.383241
0.410583
0.38324
0.275836
0.209725
0.182329
0.251473
0.275489
0.342564
0.311933
0.116498
0.311932
0.342565
0.275495
0.251481
0.308883
0.340517
0.371802
0.19029
-0.0259077
0.19029
0.371803
0.340522
0.30889
0.354266
0.397045
0.389594
0.133767
-0.0592811
0.133768
0.389596
0.39705
0.354273
0.394939
0.445885
0.409896
0.121527
-0.0554481
0.121529
0.409898
0.44589
0.394946
0.434217
0.489577
0.433921
0.130609
-0.0389246
0.130611
0.433922
0.489581
0.434223
0.472641
0.529704
0.459583
0.148419
-0.0181006
0.148422
0.459584
0.529707
0.472646
0.509832
0.566889
0.485084
0.169221
0.00399041
0.169223
0.485085
0.566893
0.509837
0.545239
0.601239
0.509316
0.190834
0.0265114
0.190836
0.509317
0.601243
0.545243
0.578336
0.632645
0.531732
0.212585
0.0494915
0.212587
0.531733
0.632648
0.57834
0.608633
0.660904
0.552067
0.234705
0.0735706
0.234707
0.552068
0.660906
0.608637
0.63565
0.68578
0.570421
0.258599
0.100703
0.258601
0.570422
0.685782
0.635653
0.658913
0.706693
0.586729
0.286942
0.134503
0.286943
0.58673
0.706695
0.658916
0.678251
0.723813
0.605351
0.330192
0.188089
0.330193
0.605352
0.723815
0.678254
0.69435
0.733621
0.618992
0.390289
0.265667
0.390289
0.618992
0.733623
0.694353
0.71046
0.747047
0.700133
0.576206
0.502307
0.576206
0.700132
0.747048
0.710462
0.733894
0.75453
0.725628
0.641638
0.582788
0.641637
0.725628
0.754531
0.733896
0.781743
0.782414
0.678883
0.480844
0.392355
0.480844
0.678883
0.782416
0.781745
0.873066
0.87914
0.765363
0.401637
0.141022
0.401637
0.765363
0.879141
0.873067
-2.41991e-07
2.85244e-07
1.76215e-05
-0.000130655
0.00118904
-0.00013044
1.77241e-05
4.27389e-07
-2.50486e-07
-2.17702e-07
6.00003e-07
1.61573e-05
-0.000128783
0.00134269
-0.000128559
1.62658e-05
8.14312e-07
-1.09283e-08
-5.80942e-07
6.92549e-07
2.71984e-05
-0.000132415
0.00190848
-0.000132114
2.74598e-05
1.15132e-06
2.65844e-08
3.83076e-07
2.25318e-06
4.69349e-05
-8.5729e-05
0.00307931
-8.52833e-05
4.74938e-05
3.19832e-06
1.78629e-06
8.43612e-06
1.39517e-05
9.38821e-05
0.00013286
0.00522879
0.000133453
9.47174e-05
1.53494e-05
1.05768e-05
4.63169e-05
6.96899e-05
0.000220869
0.00079241
0.00896125
0.000793168
0.000222068
7.1724e-05
4.95634e-05
0.000175443
0.000254247
0.000567411
0.00243768
0.0151565
0.00243856
0.000568902
0.000256774
0.000179486
0.000561275
0.000790262
0.0015229
0.00605333
0.0249825
0.00605432
0.00152476
0.000793461
0.000566467
0.0016417
0.00223635
0.00398187
0.0131674
0.0398455
0.0131684
0.00398397
0.00224002
0.0016476
0.00438095
0.0057493
0.00955889
0.0257812
0.0612383
0.0257822
0.00956128
0.00575361
0.00438792
0.0104535
0.0132139
0.0205448
0.046153
0.0906501
0.0461537
0.0205473
0.0132186
0.010461
0.0221511
0.027082
0.0396359
0.0762089
0.128681
0.0762092
0.0396385
0.0270872
0.0221594
0.0419115
0.0497611
0.0691294
0.118377
0.178291
0.118377
0.0691318
0.0497664
0.0419201
0.0715163
0.0833804
0.112243
0.171008
0.229118
0.171007
0.112245
0.0833859
0.0715254
0.111378
0.127096
0.163643
0.25107
0.343125
0.251069
0.163645
0.127102
0.111387
0.158436
0.182324
0.262233
0.334094
0.191868
0.334093
0.262234
0.182329
0.158444
0.211922
0.251477
0.276656
0.0426294
-0.1351
0.0426293
0.276657
0.251481
0.21193
0.269446
0.308887
0.223735
-0.0706136
-0.0994675
-0.0706136
0.223735
0.30889
0.269454
0.325922
0.354269
0.196025
-0.0984275
-0.0895657
-0.0984275
0.196025
0.354273
0.325929
0.379528
0.394942
0.19536
-0.0973602
-0.0835154
-0.0973599
0.195362
0.394946
0.379534
0.430477
0.43422
0.210043
-0.0861035
-0.0776218
-0.086103
0.210046
0.434223
0.430483
0.479219
0.472644
0.231613
-0.0711334
-0.0713266
-0.0711327
0.231616
0.472647
0.479224
0.525886
0.509835
0.255588
-0.0548345
-0.0646434
-0.0548335
0.255591
0.509837
0.525891
0.570328
0.545242
0.279793
-0.0381268
-0.0576497
-0.0381256
0.279796
0.545244
0.570332
0.612253
0.578339
0.303088
-0.0213779
-0.0503841
-0.0213766
0.303091
0.578341
0.612256
0.651342
0.608636
0.324779
-0.00471995
-0.0428051
-0.00471864
0.324782
0.608638
0.651345
0.687299
0.635653
0.344405
0.0119906
-0.0346876
0.011992
0.344407
0.635654
0.687301
0.719862
0.658916
0.361641
0.0289871
-0.0259211
0.0289884
0.361644
0.658918
0.719865
0.748793
0.678255
0.377787
0.0491589
-0.0135439
0.0491599
0.377789
0.678256
0.748795
0.773943
0.694354
0.39418
0.0719611
0.000231531
0.0719619
0.394182
0.694355
0.773945
0.795339
0.710464
0.425243
0.125891
0.0496478
0.125891
0.425244
0.710464
0.79534
0.817279
0.733898
0.459519
0.158597
0.0721985
0.158597
0.459519
0.733898
0.817281
0.845908
0.781747
0.522833
0.16474
0.0355359
0.16474
0.522834
0.781747
0.845909
0.89599
0.873068
0.713093
0.331058
0.0737315
0.331059
0.713093
0.873069
0.89599
)
;

boundaryField
{
    injectionXMinus
    {
        type            calculated;