/*--------------------------------*- C++ -*----------------------------------*\
  =========                 |
  \\      /  F ield         | OpenFOAM: The Open Source CFD Toolbox
   \\    /   O peration     | Website:  https://openfoam.org
    \\  /    A nd           | Version:  6
     \\/     M anipulation  |
\*---------------------------------------------------------------------------*/
FoamFile
{
    version     2.0;
    format      ascii;
    class       volScalarField;
    location    "0.6";
    object      T;
}
// * * * * * * * * * * * * * * * * * * * * * * * * * * * * * * * * * * * * * //

dimensions      [0 0 0 1 0 0 0];

internalField   nonuniform List<scalar> 
3029
(
293.15
293.151
293.161
293.079
293.829
293.079
293.161
293.151
293.15
293.15
293.151
293.16
293.081
293.917
293.081
293.16
293.151
293.15
293.151
293.153
293.168
293.081
294.239
293.08
293.168
293.152
293.151
293.153
293.156
293.182
293.11
294.903
293.109
293.181
293.155
293.153
293.16
293.166
293.211
293.236
296.12
293.235
293.21
293.164
293.159
293.183
293.2
293.286
293.612
298.231
293.611
293.285
293.198
293.183
293.259
293.308
293.485
294.545
301.734
294.543
293.483
293.305
293.258
293.479
293.614
294.028
296.59
307.288
296.588
294.025
293.61
293.478
294.092
294.434
295.421
300.612
315.687
300.61
295.417
294.43
294.09
295.642
296.421
298.574
307.742
327.777
307.739
298.57
296.416
295.64
299.075
300.642
304.784
319.251
344.388
319.248
304.78
300.636
299.072
305.686
308.478
315.57
336.251
365.919
336.246
315.564
308.471
305.683
316.852
321.3
332.251
359.982
393.694
359.977
332.245
321.293
316.848
333.58
340.254
356.49
390.218
423.871
390.212
356.483
340.246
333.575
356.085
365.132
386.264
432.568
478.656
432.56
386.255
365.122
356.079
382.774
395.617
436.157
491.428
476.012
491.422
436.147
395.606
382.767
412.4
433.487
471.184
440.833
399.308
440.83
471.174
433.475
412.391
443.946
469.258
476.914
409.389
396.361
409.388
476.907
469.245
443.936
475.365
499.059
478.559
397.554
394.598
397.553
478.552
499.045
475.354
505.671
524.973
483.442
394.12
393.604
394.12
483.436
524.959
505.659
534.774
548.931
491.603
394.404
392.939
394.403
491.598
548.917
534.761
562.762
571.711
501.64
396.483
392.593
396.483
501.635
571.696
562.748
589.622
593.448
512.467
399.585
392.594
399.584
512.461
593.433
589.607
615.227
614.021
523.419
403.363
392.955
403.363
523.414
614.006
615.211
639.397
633.238
534.078
407.65
393.685
407.649
534.073
633.223
639.38
661.943
650.884
544.142
412.356
394.811
412.355
544.136
650.869
661.926
682.697
666.741
553.385
417.509
396.439
417.508
553.38
666.727
682.68
701.515
680.587
561.627
423.166
398.613
423.165
561.622
680.573
701.499
718.278
692.326
569.399
430.583
402.666
430.582
569.394
692.313
718.261
732.921
702.226
577.168
439.394
407.516
439.393
577.163
702.214
732.905
745.458
711.641
591.428
462.418
428.558
462.417
591.423
711.63
745.441
757.935
723.738
606.835
476.398
438.06
476.397
606.83
723.728
757.919
773.527
746.516
634.646
478.162
420.963
478.161
634.641
746.506
773.509
800.774
790.813
720.662
551.751
437.084
551.748
720.656
790.802
800.757
293.151
293.143
293.18
293.12
294.506
293.119
293.18
293.143
293.151
293.151
293.144
293.185
293.128
294.713
293.128
293.184
293.144
293.151
293.153
293.145
293.201
293.16
295.322
293.159
293.2
293.144
293.152
293.156
293.151
293.233
293.286
296.569
293.285
293.231
293.149
293.155
293.165
293.174
293.3
293.68
298.829
293.678
293.298
293.172
293.164
293.2
293.249
293.472
294.679
302.615
294.677
293.469
293.246
293.198
293.308
293.456
293.942
296.85
308.563
296.847
293.939
293.452
293.304
293.613
293.995
295.148
301.007
317.379
301.004
295.144
293.99
293.609
294.434
295.323
297.872
308.167
329.776
308.163
297.868
295.317
294.429
296.421
298.269
303.241
319.408
346.363
319.404
303.235
298.263
296.415
300.641
304.038
312.578
335.674
367.567
335.669
312.572
304.031
300.635
308.477
314.028
327.171
357.591
393.403
357.585
327.164
314.02
308.47
321.3
329.509
347.9
385.276
423.792
385.269
347.892
329.499
321.291
340.254
351.289
375.331
418.674
457.062
418.666
375.321
351.278
340.244
365.131
379.263
408.124
454.833
494.431
454.824
408.113
379.25
365.12
395.617
411.692
447.688
505.547
532.25
505.538
447.676
411.678
395.604
433.486
447.907
488.437
509.61
465.625
509.604
488.424
447.891
433.472
469.257
484.26
516.066
485.08
422.997
485.076
516.054
484.243
469.241
499.057
516.951
535.206
471.22
409.321
471.217
535.194
516.933
499.041
524.971
545.847
551.757
468.288
407.509
468.286
551.746
545.828
524.955
548.929
571.953
567.805
471.751
410.616
471.749
567.794
571.934
548.912
571.71
595.995
583.48
478.238
415.852
478.236
583.469
595.976
571.692
593.447
618.284
598.484
485.982
422.11
485.98
598.473
618.265
593.429
614.02
638.883
612.532
494.243
429.035
494.24
612.52
638.864
614.002
633.237
657.753
625.46
502.774
436.607
502.772
625.449
657.734
633.219
650.883
674.809
637.187
511.671
445.063
511.668
637.177
674.791
650.866
666.741
689.961
647.787
521.534
455.224
521.532
647.777
689.944
666.724
680.587
702.968
657.244
533.513
468.641
533.51
657.234
702.952
680.571
692.326
713.948
667.571
552.285
491.17
552.283
667.562
713.933
692.311
702.227
721.261
675.29
578.532
524.502
578.529
675.281
721.248
702.213
711.642
730.002
714.263
662.314
630.321
662.311
714.256
729.991
711.629
723.739
734.798
726.64
692.07
666.605
692.068
726.634
734.788
723.727
746.517
747.647
704.891
619.831
581.157
619.829
704.885
747.638
746.505
790.814
793.451
743.829
583.296
467.222
583.293
743.822
793.44
790.803
293.161
293.18
293.273
292.904
298.336
292.903
293.272
293.18
293.161
293.16
293.184
293.271
293.057
299.337
293.056
293.27
293.184
293.16
293.168
293.201
293.265
293.526
301.766
293.525
293.263
293.199
293.167
293.182
293.232
293.29
294.658
306.082
294.656
293.288
293.231
293.18
293.211
293.3
293.482
296.988
312.784
296.986
293.48
293.297
293.209
293.286
293.471
294.16
301.235
322.383
301.232
294.157
293.468
293.283
293.485
293.941
295.902
308.243
335.339
308.24
295.899
293.937
293.481
294.027
295.147
299.577
318.875
352.007
318.871
299.573
295.142
294.023
295.42
297.871
306.279
333.878
372.588
333.873
306.274
297.866
295.415
298.573
303.239
317.162
353.745
397.072
353.739
317.155
303.233
298.567
304.783
312.577
333.21
378.594
425.193
378.587
333.202
312.57
304.776
315.568
327.17
355.016
408.107
456.399
408.099
355.007
327.161
315.561
332.25
347.899
382.582
441.424
489.663
441.415
382.572
347.889
332.241
356.489
375.329
415.25
477.355
523.965
477.345
415.238
375.318
356.479
386.262
408.122
451.376
513.027
554.753
513.017
451.363
408.109
386.25
436.155
447.686
488.373
547.869
587.363
547.858
488.359
447.671
436.141
471.181
488.434
523.874
576.21
589.057
576.2
523.858
488.418
471.168
476.912
516.063
555.264
590.613
568.2
590.603
555.247
516.047
476.901
478.557
535.203
582.029
601.008
558.62
601
582.013
535.187
478.547
483.44
551.755
605.358
612.183
560.264
612.175
605.341
551.739
483.431
491.602
567.803
626.263
624.478
568.199
624.47
626.247
567.787
491.593
501.639
583.478
645.217
637.035
578.811
637.027
645.2
583.462
501.63
512.466
598.482
662.368
649.18
590.24
649.172
662.352
598.467
512.457
523.419
612.53
677.771
660.521
601.682
660.514
677.755
612.515
523.409
534.078
625.459
691.473
670.997
612.951
670.99
691.458
625.445
534.069
544.142
637.188
703.542
680.806
624.358
680.799
703.528
637.174
544.133
553.386
647.788
714.137
690.487
636.826
690.481
714.123
647.775
553.377
561.629
657.246
723.351
701.216
652.414
701.21
723.339
657.233
561.62
569.401
667.573
732.906
715.912
675.746
715.907
732.895
667.562
569.393
577.171
675.293
740.386
741.128
716.913
741.123
740.376
675.282
577.163
591.432
714.266
806.429
818.341
819.632
818.338
806.424
714.258
591.425
606.84
726.643
726.636
606.833
634.651
704.894
730.951
686.796
643.691
686.793
730.945
704.888
634.643
720.665
743.832
749.232
655.029
561.001
655.025
749.224
743.824
720.658
757.457
654.984
545.3
654.979
757.449
761.302
658.887
545.481
658.883
761.294
763.338
662.284
549.019
662.28
763.33
764.677
665.087
553.218
665.082
764.669
765.747
667.597
557.541
667.592
765.739
766.703
670
561.912
669.995
766.696
767.605
672.375
566.325
672.371
767.598
768.476
674.764
570.802
674.76
768.469
769.318
677.145
575.277
677.141
769.311
770.174
679.665
580.024
679.661
770.167
770.902
681.733
583.898
681.73
770.896
772.19
685.778
591.52
685.774
772.184
293.079
293.119
292.904
304.147
341.074
304.145
292.902
293.118
293.079
293.081
293.128
293.057
305.702
344.456
305.699
293.055
293.127
293.08
293.08
293.159
293.526
309.343
351.594
309.34
293.523
293.158
293.079
293.109
293.285
294.657
315.557
362.498
315.554
294.654
293.283
293.108
293.235
293.679
296.987
324.838
376.99
324.834
296.983
293.676
293.233
293.611
294.677
301.233
337.643
394.846
337.639
301.23
294.674
293.608
294.543
296.848
308.241
354.309
415.809
354.304
308.237
296.843
294.54
296.588
301.004
318.873
374.979
439.578
374.973
318.867
301
296.584
300.61
308.164
333.876
399.563
465.793
399.555
333.869
308.158
300.606
307.74
319.405
353.742
427.718
494.012
427.71
353.734
319.398
307.734
319.248
335.671
378.591
458.855
523.69
458.846
378.582
335.663
319.242
336.248
357.587
408.104
492.139
554.165
492.13
408.094
357.578
336.24
359.979
385.272
441.421
526.478
584.598
526.468
441.409
385.261
359.97
390.215
418.669
477.352
560.497
614.011
560.486
477.339
418.657
390.204
432.563
454.828
513.024
592.466
640.806
592.455
513.01
454.814
432.551
491.423
505.541
547.865
619.963
663.462
619.952
547.849
505.526
491.41
440.831
509.606
576.206
642.946
681.431
642.935
576.19
509.593
440.827
409.389
485.077
590.608
662.733
693.67
662.72
590.593
485.068
409.388
397.554
471.218
601.004
680.416
704.372
680.404
600.989
471.211
397.554
394.12
468.287
612.179
696.529
715.241
696.517
612.164
468.281
394.12
394.404
471.75
624.475
711.277
726.199
711.265
624.46
471.744
394.404
396.484
478.238
637.032
724.684
736.771
724.673
637.018
478.231
396.483
399.585
485.982
649.178
736.75
746.635
736.739
649.164
485.975
399.584
403.364
494.243
660.52
747.497
755.638
747.486
660.506
494.236
403.363
407.651
502.775
670.996
757.023
763.797
757.013
670.983
502.768
407.649
412.357
511.673
680.806
765.513
771.278
765.504
680.793
511.666
412.356
417.51
521.537
690.488
773.294
778.429
773.286
690.476
521.53
417.509
423.168
533.517
701.218
781.036
785.959
781.028
701.207
533.51
423.166
430.586
552.29
715.915
789.825
795.081
789.818
715.904
552.283
430.584
439.398
578.537
741.131
804.147
809.252
804.142
741.122
578.53
439.396
462.423
662.319
818.343
822.829
826.466
822.827
818.339
662.314
462.42
476.403
692.076
692.071
476.401
478.168
619.837
686.802
714.385
691.138
714.382
686.797
619.833
478.165
551.757
583.302
655.034
700.293
668.753
700.29
655.03
583.299
551.754
654.989
692.759
657.991
692.754
654.984
658.893
690.696
655.056
690.691
658.887
662.289
690.76
655.222
690.755
662.284
665.092
691.573
656.506
691.568
665.086
667.602
692.652
658.191
692.647
667.596
670.005
693.842
660.04
693.838
670
672.38
695.097
661.975
695.093
672.375
674.769
696.41
663.98
696.406
674.764
677.15
697.753
666.015
697.749
677.145
679.669
699.23
668.225
699.226
679.665
681.738
700.43
670.009
700.427
681.734
685.783
702.958
673.711
702.954
685.779
293.828
294.504
298.334
341.071
422.926
341.067
298.333
294.503
293.828
293.916
294.712
299.335
344.452
427.342
344.449
299.333
294.71
293.915
294.238
295.32
301.764
351.591
436.044
351.587
301.761
295.318
294.236
294.901
296.566
306.079
362.495
448.492
362.49
306.076
296.564
294.899
296.118
298.826
312.781
376.986
463.989
376.981
312.777
298.823
296.116
298.228
302.612
322.379
394.842
481.946
394.836
322.375
302.608
298.226
301.731
308.559
335.335
415.804
501.913
415.798
335.33
308.555
301.728
307.284
317.375
352.002
439.573
523.54
439.566
351.997
317.37
307.281
315.683
329.771
372.583
465.788
546.516
465.781
372.576
329.765
315.679
327.772
346.358
397.066
494.007
570.52
493.999
397.059
346.352
327.767
344.383
367.56
425.186
523.685
595.183
523.676
425.178
367.553
344.377
365.914
393.396
456.392
554.16
620.067
554.151
456.382
393.388
365.907
393.688
423.784
489.656
584.593
644.644
584.584
489.646
423.775
393.681
423.865
457.054
523.958
614.005
668.265
613.996
523.946
457.043
423.856
478.649
494.422
554.745
640.801
690.188
640.791
554.733
494.411
478.638
476.008
532.242
587.355
663.458
709.213
663.447
587.342
532.23
476.001
399.308
465.622
589.05
681.426
725.194
681.415
589.038
465.617
399.308
396.362
422.996
568.194
693.665
739.073
693.654
568.184
422.994
396.362
394.599
409.321
558.616
704.367
751.226
704.356
558.606
409.32
394.599
393.604
407.509
560.26
715.237
761.889
715.226
560.25
407.507
393.604
392.94
410.616
568.196
726.196
771.325
726.185
568.186
410.614
392.94
392.593
415.852
578.808
736.768
779.737
736.757
578.798
415.85
392.593
392.595
422.111
590.238
746.633
787.248
746.622
590.228
422.108
392.594
392.956
429.036
601.68
755.636
793.952
755.626
601.671
429.033
392.956
393.686
436.608
612.951
763.796
799.915
763.786
612.941
436.605
393.686
394.813
445.065
624.358
771.277
805.198
771.268
624.348
445.062
394.812
396.441
455.227
636.827
778.429
809.893
778.42
636.818
455.223
396.441
398.616
468.645
652.417
785.959
814.155
785.952
652.408
468.641
398.615
402.669
491.174
675.749
795.082
818.265
795.075
675.741
491.17
402.668
407.52
524.507
716.917
809.254
823.069
809.249
716.91
524.503
407.519
428.562
630.327
819.636
826.468
831.797
826.466
819.632
630.323
428.561
438.065
666.611
666.607
438.064
420.968
581.162
643.697
691.144
710.847
691.142
643.695
581.16
420.967
437.089
467.228
561.007
668.76
709.699
668.757
561.005
467.227
437.088
545.306
657.997
708.006
657.995
545.304
545.487
655.063
707.086
655.06
545.485
549.026
655.228
706.77
655.225
549.023
553.225
656.513
706.793
656.51
553.222
557.547
658.198
706.996
658.195
557.545
561.918
660.046
707.314
660.044
561.916
566.332
661.981
707.721
661.978
566.33
570.808
663.987
708.216
663.984
570.806
575.284
666.021
708.774
666.019
575.282
580.031
668.231
709.478
668.229
580.029
583.905
670.015
710.024
670.013
583.903
591.527
673.717
711.478
673.714
591.525
293.078
293.118
292.902
304.143
341.065
304.142
292.901
293.118
293.078
293.08
293.126
293.054
305.697
344.447
305.695
293.053
293.126
293.08
293.08
293.158
293.523
309.338
351.585
309.336
293.522
293.157
293.079
293.108
293.283
294.654
315.551
362.488
315.549
294.652
293.282
293.107
293.234
293.676
296.983
324.83
376.979
324.828
296.981
293.675
293.233
293.609
294.674
301.229
337.635
394.834
337.632
301.227
294.673
293.607
294.541
296.844
308.236
354.299
415.795
354.296
308.233
296.842
294.539
296.585
301
318.866
374.967
439.563
374.964
318.863
300.997
296.583
300.607
308.159
333.868
399.549
465.778
399.545
333.865
308.156
300.604
307.735
319.399
353.733
427.704
493.996
427.699
353.729
319.395
307.732
319.243
335.663
378.581
458.839
523.673
458.834
378.576
335.659
319.24
336.241
357.578
408.092
492.123
554.148
492.117
408.086
357.573
336.237
359.971
385.262
441.408
526.461
584.581
526.455
441.401
385.256
359.966
390.206
418.658
477.337
560.479
613.993
560.473
477.33
418.651
390.2
432.553
454.816
513.009
592.449
640.788
592.441
513.001
454.808
432.547
491.414
505.529
547.85
619.945
663.445
619.938
547.84
505.52
491.407
440.828
509.597
576.192
642.929
681.413
642.921
576.182
509.589
440.825
409.388
485.071
590.596
662.715
693.652
662.707
590.586
485.066
409.387
397.554
471.214
600.993
680.399
704.354
680.391
600.983
471.209
397.554
394.12
468.283
612.168
696.512
715.225
696.504
612.158
468.279
394.12
394.404
471.747
624.464
711.261
726.184
711.253
624.454
471.743
394.404
396.484
478.234
637.022
724.669
736.756
724.661
637.012
478.23
396.483
399.585
485.978
649.168
736.737
746.622
736.729
649.158
485.974
399.584
403.363
494.239
660.511
747.484
755.626
747.477
660.501
494.234
403.363
407.65
502.771
670.988
757.011
763.786
757.004
670.978
502.766
407.649
412.357
511.669
680.798
765.503
771.269
765.496
680.788
511.664
412.355
417.51
521.533
690.481
773.286
778.421
773.279
690.472
521.528
417.508
423.167
533.513
701.212
781.029
785.953
781.023
701.203
533.507
423.165
430.585
552.286
715.909
789.82
795.077
789.815
715.901
552.281
430.583
439.396
578.533
741.127
804.144
809.251
804.14
741.12
578.528
439.395
462.421
662.316
818.342
822.829
826.467
822.828
818.339
662.312
462.419
476.401
692.073
692.07
476.399
478.165
619.834
686.8
714.388
691.147
714.387
686.797
619.832
478.163
551.754
583.3
655.032
700.296
668.762
700.294
655.029
583.297
551.752
654.987
692.761
657.999
692.759
654.984
658.89
690.698
655.065
690.697
658.888
662.287
690.762
655.23
690.761
662.284
665.09
691.576
656.514
691.575
665.087
667.6
692.654
658.2
692.653
667.597
670.003
693.845
660.048
693.844
670.001
672.379
695.1
661.983
695.099
672.377
674.768
696.413
663.989
696.413
674.766
677.149
697.756
666.023
697.756
677.147
679.669
699.233
668.233
699.233
679.667
681.738
700.434
670.017
700.433
681.736
685.783
702.962
673.719
702.961
685.781
293.161
293.179
293.272
292.901
298.332
292.901
293.271
293.179
293.161
293.16
293.183
293.269
293.054
299.332
293.053
293.269
293.183
293.16
293.167
293.199
293.262
293.522
301.76
293.522
293.262
293.198
293.167
293.18
293.23
293.286
294.653
306.075
294.652
293.286
293.23
293.18
293.209
293.297
293.478
296.982
312.776
296.981
293.477
293.296
293.209
293.283
293.467
294.155
301.228
322.374
301.227
294.154
293.466
293.282
293.481
293.936
295.896
308.234
335.328
308.233
295.895
293.935
293.48
294.023
295.141
299.57
318.865
351.995
318.863
299.569
295.14
294.022
295.415
297.864
306.271
333.866
372.574
333.864
306.269
297.862
295.413
298.567
303.232
317.152
353.731
397.056
353.728
317.15
303.229
298.565
304.776
312.568
333.198
378.578
425.176
378.575
333.195
312.565
304.774
315.56
327.159
355.003
408.089
456.38
408.086
354.999
327.156
315.558
332.24
347.887
382.567
441.405
489.643
441.401
382.563
347.883
332.237
356.478
375.315
415.232
477.334
523.944
477.33
415.228
375.311
356.474
386.249
408.107
451.357
513.005
554.73
513
451.352
408.102
386.245
436.141
447.669
488.353
547.845
587.34
547.84
488.347
447.663
436.135
471.169
488.417
523.853
576.186
589.036
576.182
523.846
488.41
471.163
476.902
516.047
555.242
590.59
568.183
590.586
555.235
516.04
476.898
478.549
535.188
582.008
600.987
558.605
600.983
582.001
535.181
478.545
483.433
551.74
605.337
612.162
560.25
612.159
605.33
551.733
483.429
491.595
567.789
626.242
624.458
568.186
624.455
626.235
567.782
491.591
501.632
583.464
645.196
637.017
578.799
637.013
645.189
583.457
501.628
512.459
598.469
662.349
649.163
590.229
649.159
662.342
598.462
512.454
523.412
612.518
677.753
660.506
601.672
660.502
677.746
612.51
523.407
534.071
625.447
691.456
670.983
612.942
670.98
691.449
625.44
534.066
544.135
637.176
703.527
680.794
624.35
680.791
703.52
637.169
544.13
553.38
647.778
714.124
690.478
636.82
690.474
714.117
647.771
553.375
561.622
657.236
723.341
701.209
652.411
701.206
723.334
657.23
561.618
569.395
667.565
732.898
715.907
675.744
715.904
732.892
667.559
569.391
577.165
675.286
740.38
741.126
716.914
741.123
740.375
675.28
577.161
591.426
714.262
806.429
818.343
819.635
818.341
806.427
714.257
591.423
606.834
726.64
726.637
606.831
634.646
704.892
730.952
686.802
643.699
686.801
730.949
704.888
634.642
720.664
743.831
749.233
655.035
561.009
655.033
749.23
743.827
720.661
757.458
654.989
545.308
654.988
757.455
761.303
658.893
545.489
658.891
761.3
763.34
662.289
549.027
662.288
763.336
764.679
665.092
553.226
665.091
764.675
765.748
667.602
557.549
667.601
765.745
766.705
670.005
561.92
670.004
766.702
767.607
672.381
566.334
672.38
767.604
768.478
674.77
570.81
674.769
768.475
769.321
677.151
575.286
677.15
769.318
770.176
679.671
580.033
679.67
770.174
770.905
681.74
583.907
681.739
770.903
772.194
685.785
591.529
685.784
772.191
293.151
293.142
293.179
293.118
294.503
293.118
293.179
293.142
293.151
293.151
293.143
293.183
293.126
294.71
293.126
293.183
293.143
293.151
293.152
293.144
293.199
293.157
295.317
293.157
293.198
293.144
293.152
293.155
293.148
293.23
293.282
296.564
293.282
293.23
293.148
293.154
293.163
293.171
293.296
293.675
298.822
293.675
293.296
293.17
293.163
293.197
293.245
293.467
294.673
302.608
294.673
293.466
293.244
293.196
293.303
293.45
293.935
296.842
308.554
296.842
293.935
293.449
293.302
293.608
293.988
295.141
300.998
317.369
300.997
295.14
293.987
293.607
294.427
295.315
297.864
308.157
329.764
308.156
297.862
295.314
294.426
296.414
298.26
303.231
319.396
346.351
319.395
303.229
298.258
296.412
300.633
304.028
312.567
335.661
367.552
335.659
312.565
304.026
300.632
308.468
314.016
327.158
357.575
393.386
357.573
327.156
314.014
308.466
321.29
329.496
347.886
385.258
423.774
385.256
347.883
329.493
321.287
340.242
351.274
375.314
418.654
457.042
418.651
375.311
351.271
340.24
365.118
379.246
408.106
454.811
494.41
454.808
408.102
379.243
365.115
395.602
411.673
447.667
505.523
532.229
505.52
447.663
411.669
395.598
433.47
447.887
488.415
509.592
465.616
509.59
488.41
447.882
433.465
469.24
484.238
516.044
485.068
422.994
485.066
516.04
484.233
469.235
499.04
516.929
535.185
471.211
409.32
471.21
535.182
516.924
499.035
524.954
545.825
551.737
468.28
407.508
468.28
551.734
545.819
524.949
548.912
571.931
567.786
471.744
410.615
471.743
567.782
571.925
548.906
571.692
595.973
583.461
478.231
415.851
478.231
583.458
595.967
571.686
593.429
618.262
598.466
485.975
422.109
485.975
598.463
618.256
593.423
614.003
638.863
612.515
494.237
429.034
494.236
612.512
638.857
613.997
633.221
657.734
625.445
502.769
436.606
502.768
625.441
657.727
633.215
650.868
674.792
637.174
511.667
445.063
511.666
637.171
674.785
650.862
666.727
689.946
647.776
521.531
455.225
521.531
647.773
689.94
666.721
680.574
702.956
657.235
533.512
468.643
533.511
657.232
702.95
680.569
692.315
713.937
667.565
552.286
491.173
552.285
667.561
713.932
692.31
702.218
721.253
675.286
578.534
524.506
578.532
675.283
721.249
702.213
711.635
729.997
714.263
662.317
630.327
662.316
714.26
729.993
711.631
723.734
734.795
726.642
692.075
666.611
692.074
726.639
734.792
723.73
746.512
747.646
704.893
619.836
581.164
619.836
704.891
747.642
746.508
790.811
793.451
743.832
583.302
467.23
583.301
743.83
793.449
790.81
293.15
293.151
293.161
293.079
293.828
293.078
293.161
293.151
293.15
293.15
293.151
293.16
293.08
293.915
293.08
293.16
293.151
293.15
293.151
293.152
293.167
293.079
294.236
293.079
293.167
293.152
293.151
293.153
293.155
293.18
293.107
294.899
293.107
293.18
293.154
293.152
293.159
293.163
293.209
293.233
296.115
293.233
293.209
293.163
293.158
293.182
293.197
293.283
293.607
298.225
293.607
293.282
293.196
293.181
293.257
293.303
293.481
294.539
301.727
294.539
293.48
293.302
293.256
293.477
293.608
294.022
296.584
307.28
296.583
294.022
293.607
293.475
294.089
294.427
295.414
300.605
315.678
300.604
295.413
294.426
294.087
295.638
296.414
298.566
307.733
327.767
307.732
298.565
296.412
295.636
299.071
300.633
304.775
319.241
344.377
319.24
304.774
300.632
299.068
305.681
308.468
315.559
336.239
365.907
336.237
315.558
308.466
305.678
316.846
321.289
332.239
359.968
393.68
359.967
332.238
321.287
316.843
333.572
340.242
356.477
390.203
423.856
390.201
356.474
340.24
333.569
356.076
365.118
386.248
432.55
478.638
432.547
386.245
365.115
356.073
382.764
395.601
436.139
491.409
476.001
491.407
436.136
395.598
382.76
412.388
433.469
471.166
440.826
399.308
440.825
471.163
433.466
412.384
443.932
469.239
476.9
409.388
396.362
409.387
476.898
469.235
443.928
475.35
499.039
478.547
397.554
394.599
397.554
478.545
499.035
475.345
505.656
524.953
483.431
394.12
393.604
394.12
483.429
524.949
505.65
534.758
548.911
491.593
394.404
392.94
394.404
491.592
548.907
534.752
562.745
571.691
501.63
396.484
392.593
396.484
501.628
571.687
562.739
589.605
593.428
512.456
399.585
392.595
399.585
512.455
593.424
589.599
615.21
614.002
523.409
403.363
392.956
403.363
523.408
613.998
615.204
639.38
633.219
534.069
407.65
393.686
407.65
534.068
633.215
639.374
661.926
650.867
544.133
412.356
394.813
412.356
544.132
650.863
661.92
682.681
666.726
553.378
417.509
396.441
417.509
553.377
666.722
682.675
701.5
680.573
561.621
423.167
398.616
423.167
561.62
680.57
701.495
718.264
692.315
569.395
430.585
402.67
430.585
569.394
692.311
718.259
732.908
702.217
577.165
439.397
407.52
439.397
577.164
702.214
732.904
745.446
711.634
591.427
462.422
428.563
462.422
591.426
711.632
745.442
757.924
723.733
606.835
476.402
438.066
476.402
606.834
723.731
757.921
773.516
746.511
634.646
478.167
420.969
478.167
634.646
746.509
773.512
800.767
790.812
720.665
551.757
437.091
551.756
720.663
790.811
800.769
)
;

boundaryField
{
    injectionXMinus
    {
        type            uniformFixedValue;
        uniformValue    uniform 400;
        value           uniform 400;
    }
    injectionXPlus
    {
        type            uniformFixedValue;
        uniformValue    uniform 400;
        value           uniform 400;
    }
    injectionYMinus
    {
        type            uniformFixedValue;
        uniformValue    uniform 400;
        value           uniform 400;
    }
    injectionYPlus
    {
        type            uniformFixedValue;
        uniformValue    uniform 400;
        value           uniform 400;
    }
    inletXMinus
    {
        type            uniformFixedValue;
        uniformValue    uniform 293.15;
        value           uniform 293.15;
    }
    inletXPlus
    {
        type            uniformFixedValue;
        uniformValue    uniform 293.15;
        value           uniform 293.15;
    }
    inletYMinus
    {
        type            uniformFixedValue;
        uniformValue    uniform 293.15;
        value           uniform 293.15;
    }
    inletYPlus
    {
        type            uniformFixedValue;
        uniformValue    uniform 293.15;
        value           uniform 293.15;
    }
    outlet
    {
        type            zeroGradient;
    }
    valve
    {
        type            zeroGradient;
    }
    walls
    {
        type            zeroGradient;
    }
}


// ************************************************************************* //
