/*--------------------------------*- C++ -*----------------------------------*\
  =========                 |
  \\      /  F ield         | OpenFOAM: The Open Source CFD Toolbox
   \\    /   O peration     | Website:  https://openfoam.org
    \\  /    A nd           | Version:  6
     \\/     M anipulation  |
\*---------------------------------------------------------------------------*/
FoamFile
{
    version     2.0;
    format      ascii;
    class       volScalarField;
    location    "0.1";
    object      T;
}
// * * * * * * * * * * * * * * * * * * * * * * * * * * * * * * * * * * * * * //

dimensions      [0 0 0 1 0 0 0];

internalField   nonuniform List<scalar> 
3029
(
293.207
286.133
312.672
356.363
689.225
356.361
312.672
286.133
293.207
329.867
331.468
345.151
389.221
727.864
389.221
345.151
331.468
329.867
286.098
299.805
341.154
446.406
720.952
446.405
341.154
299.805
286.098
362.863
374.973
442.201
544.297
732.907
544.295
442.201
374.972
362.863
491.239
498.568
565.323
642.142
759.074
642.14
565.322
498.567
491.238
616.116
617.729
668.312
718.643
787.008
718.642
668.309
617.726
616.115
710.123
708.244
740.97
771.549
810.106
771.548
740.966
708.241
710.12
772.355
768.974
788.325
805.938
827.044
805.937
788.321
768.97
772.352
810.545
806.986
817.785
827.504
838.73
827.503
817.78
806.981
810.542
832.74
829.662
835.479
840.735
846.573
840.733
835.475
829.657
832.736
844.967
842.609
845.808
848.889
852.035
848.887
845.803
842.604
844.962
851.135
849.504
851.657
854.429
856.95
854.427
851.651
849.499
851.13
853.586
852.463
854.675
859.682
865.609
859.68
854.671
852.458
853.581
853.899
852.489
854.811
864.203
874.596
864.201
854.807
852.485
853.894
854.31
850.199
850.212
901.008
1198.44
901.004
850.209
850.195
854.305
860.102
849.614
823.249
728.484
662.717
728.482
823.246
849.61
860.098
890.178
886.267
775.837
418.512
487.569
418.511
775.835
886.262
890.174
925.427
914.357
693.113
280.097
462.89
280.097
693.111
914.352
925.422
933.617
903.907
642.718
262.915
386.859
262.915
642.717
903.903
933.614
923.565
885.179
645.846
329.647
452.006
329.647
645.846
885.176
923.561
908.431
870.952
675.526
427.963
540.089
427.962
675.527
870.95
908.428
894.694
862.505
711.545
524.708
617.778
524.707
711.546
862.503
894.691
883.947
857.938
744.467
606.379
677.856
606.379
744.467
857.936
883.943
875.871
855.491
771.493
671.009
723.374
671.008
771.492
855.489
875.868
869.732
854.045
792.541
720.501
757.955
720.5
792.54
854.044
869.73
864.809
852.851
808.221
757.356
783.754
757.356
808.22
852.849
864.808
860.528
851.319
819.074
783.618
801.969
783.618
819.074
851.317
860.527
856.709
848.97
825.206
800.232
812.562
800.231
825.206
848.968
856.707
854.378
846.451
829.961
810.763
818.35
810.762
829.962
846.45
854.377
856.762
843.181
815.724
796.484
798.298
796.484
815.725
843.18
856.762
877.125
866.007
882.126
867.439
868.799
867.44
882.127
866.008
877.125
908.573
907.286
995.983
1006.27
1011.44
1006.27
995.985
907.288
908.573
925.466
919.753
882.967
883.163
890.021
883.164
882.969
919.755
925.467
938.102
937.896
648.317
511.458
496.147
511.458
648.319
937.898
938.102
286.133
323.258
445.084
502.227
678.924
502.226
445.083
323.258
286.133
331.468
424.603
555.027
558.953
705.63
558.952
555.025
424.603
331.468
299.805
393.734
533.809
599.87
722.683
599.868
533.807
393.733
299.805
374.973
438.247
564.472
651.049
744.004
651.048
564.47
438.245
374.972
498.568
534.48
631.792
705.951
769.096
705.95
631.79
534.477
498.566
617.729
635.671
701.911
753.703
793.187
753.702
701.908
635.668
617.726
708.244
716.192
757.416
789.873
813.187
789.871
757.413
716.188
708.24
768.974
771.57
795.766
814.989
828.236
814.988
795.762
771.565
768.969
806.985
806.998
820.602
831.585
838.895
831.582
820.597
806.993
806.98
829.662
828.647
836.049
842.213
846.177
842.21
836.045
828.641
829.656
842.609
841.348
845.325
848.91
851.148
848.908
845.32
841.342
842.603
849.504
848.283
850.528
853.153
854.896
853.152
850.524
848.278
849.498
852.462
851.126
852.58
855.802
858.889
855.8
852.576
851.121
852.456
852.489
850.157
850.643
855.455
861.489
855.453
850.638
850.151
852.483
850.199
844.725
841.407
851.805
912.189
851.802
841.402
844.72
850.194
849.614
836.539
817.133
770.333
725.224
770.332
817.129
836.533
849.609
886.267
842
776.593
638.441
940.454
638.44
776.59
841.995
886.262
914.357
845.947
729.513
557.404
1078.46
557.402
729.511
845.943
914.351
903.907
837.134
705.384
535.416
925.453
535.414
705.383
837.129
903.901
885.179
829.245
709.874
565.613
857.388
565.61
709.873
829.242
885.175
870.952
826.855
729.494
617.425
835.462
617.423
729.493
826.852
870.949
862.505
828.728
753.328
670.548
831.857
670.546
753.327
828.725
862.502
857.938
832.575
775.809
716.284
833.729
716.282
775.807
832.572
857.935
855.491
836.778
794.836
752.826
836.629
752.824
794.835
836.776
855.489
854.045
840.487
810.051
781.039
839.914
781.037
810.05
840.486
854.044
852.851
843.254
821.718
802.36
843.249
802.359
821.716
843.253
852.85
851.32
844.661
830.115
817.931
846.045
817.931
830.115
844.66
851.318
848.971
843.729
834.894
827.406
846.218
827.405
834.894
843.729
848.969
846.452
839.656
835.071
826.734
837.705
826.734
835.072
839.657
846.451
843.181
811.535
781.467
775.024
773.205
775.024
781.468
811.535
843.181
866.008
807.722
911.233
790.55
807.058
790.55
911.234
807.723
866.009
907.287
836.141
955.597
823.686
836.578
823.686
955.599
836.143
907.289
919.753
919.678
1046.35
1028.45
1028.31
1028.45
1046.36
919.683
919.755
937.896
1078.98
1183.49
1248.48
1251.6
1248.48
1183.5
1078.98
937.899
312.672
445.084
658.726
723.844
770.546
723.843
658.724
445.083
312.672
345.151
555.026
768.007
768.668
783.572
768.666
768.004
555.024
345.151
341.154
533.808
743.354
774.471
788.679
774.47
743.35
533.806
341.154
442.201
564.472
728.188
776.956
794.056
776.955
728.184
564.469
442.2
565.323
631.792
743.61
788.052
803.214
788.051
743.605
631.788
565.321
668.312
701.911
772.085
803.744
814.574
803.743
772.081
701.906
668.308
740.969
757.415
799.036
818.921
825.718
818.919
799.032
757.41
740.964
788.324
795.764
819.513
831.199
835.152
831.198
819.509
795.759
788.319
817.784
820.601
833.69
840.265
842.446
840.263
833.686
820.596
817.778
835.478
836.049
842.994
846.575
847.741
846.573
842.99
836.044
835.472
845.806
845.324
848.797
850.734
851.387
850.732
848.793
845.319
845.8
851.655
850.528
851.995
853.18
853.738
853.178
851.991
850.522
851.648
854.674
852.579
852.711
853.917
855.003
853.916
852.707
852.574
854.667
854.811
850.643
849.761
851.889
854.616
851.887
849.757
850.637
854.805
850.212
841.406
840.363
844.966
857.481
844.964
840.359
841.4
850.207
823.249
817.133
822.104
822.127
811.079
822.126
822.1
817.128
823.244
775.837
776.592
809.477
808.902
998.142
808.9
809.473
776.588
775.832
693.112
729.512
798.841
803.39
1248.12
803.387
798.838
729.509
693.109
642.717
705.384
787.102
792.539
1228.78
792.536
787.1
705.382
642.715
645.846
709.874
784.05
791.742
1144.05
791.739
784.048
709.872
645.844
675.527
729.494
789.394
799.61
1064.72
799.607
789.392
729.491
675.525
711.546
753.329
799.237
810.885
1004.8
810.883
799.235
753.326
711.545
744.468
775.809
810.208
821.99
961.59
821.987
810.207
775.807
744.466
771.494
794.837
820.45
831.499
930.574
831.497
820.449
794.835
771.491
792.543
810.052
829.3
839.34
908.751
839.338
829.299
810.05
792.54
808.222
821.718
836.785
846.062
894.123
846.061
836.783
821.718
808.221
819.075
830.116
843.575
852.836
885.716
852.835
843.573
830.115
819.075
825.207
834.895
853.535
863.012
884.919
863.012
853.535
834.895
825.207
829.963
835.072
859.638
877.277
891.238
877.277
859.638
835.073
829.964
815.725
781.468
1049.49
1035.93
1030.11
1035.93
1049.49
781.469
815.727
882.128
911.235
1612.64
1072.45
1138.63
1072.45
1612.64
911.237
882.13
995.984
955.599
955.602
995.986
882.968
1046.35
667.048
635.097
668.457
635.098
667.05
1046.36
882.971
648.318
1183.5
930.61
964.817
981.122
964.819
930.614
1183.5
648.321
827.924
886.324
920.711
886.326
827.928
821.719
865.688
905.487
865.69
821.722
824.449
856.834
895.384
856.836
824.452
826.345
852.059
887.978
852.06
826.347
827.37
849.41
882.655
849.411
827.373
827.47
847.148
877.979
847.149
827.472
827.616
845.421
874
845.423
827.618
828.051
844.21
870.64
844.211
828.052
828.784
843.445
867.813
843.446
828.785
829.834
843.094
865.479
843.096
829.835
830.674
842.745
863.384
842.746
830.675
833.231
843.56
861.554
843.561
833.232
356.363
502.227
723.844
816.688
830.795
816.687
723.842
502.224
356.362
389.222
558.952
768.666
830.112
831.893
830.111
768.664
558.949
389.221
446.406
599.868
774.469
825.779
826.939
825.778
774.465
599.865
446.405
544.297
651.048
776.954
819.506
822.786
819.505
776.95
651.044
544.295
642.141
705.949
788.051
819.349
823.091
819.348
788.047
705.946
642.138
718.642
753.702
803.743
824.256
827.175
824.255
803.739
753.698
718.638
771.547
789.871
818.919
831.232
833.067
831.231
818.916
789.867
771.544
805.936
814.987
831.198
838.119
839.109
838.118
831.195
814.983
805.931
827.503
831.582
840.263
843.922
844.375
843.92
840.26
831.578
827.497
840.732
842.21
846.574
848.35
848.503
848.349
846.571
842.206
840.728
848.886
848.908
850.733
851.431
851.437
851.43
850.729
848.904
848.881
854.428
853.152
853.179
853.229
853.213
853.227
853.175
853.148
854.421
859.681
855.801
853.917
853.639
853.834
853.636
853.914
855.796
859.676
864.202
855.453
851.889
852.261
853.357
852.26
851.886
855.448
864.199
901.006
851.804
844.966
848.967
853.455
848.966
844.962
851.799
901.002
728.483
770.332
822.127
845.226
853.397
845.225
822.123
770.329
728.479
418.511
638.441
808.901
861.285
905.804
861.283
808.898
638.439
418.51
280.097
557.404
803.39
882.12
994.058
882.117
803.387
557.402
280.097
262.915
535.416
792.539
883.415
1017.3
883.413
792.537
535.413
262.915
329.647
565.612
791.742
876.685
998.596
876.683
791.739
565.61
329.647
427.962
617.425
799.61
870.158
968.474
870.157
799.607
617.422
427.962
524.708
670.548
810.885
865.927
940.871
865.925
810.884
670.546
524.707
606.38
716.284
821.99
863.602
919.149
863.6
821.988
716.283
606.379
671.009
752.826
831.499
862.591
903.015
862.59
831.498
752.825
671.009
720.501
781.039
839.34
862.627
891.669
862.625
839.339
781.039
720.5
757.358
802.361
846.063
863.986
884.676
863.986
846.061
802.36
757.356
783.62
817.933
852.837
867.763
882.439
867.763
852.836
817.932
783.62
800.234
827.408
863.013
876.612
886.758
876.613
863.013
827.408
800.234
810.765
826.736
877.278
898.186
903.119
898.186
877.279
826.736
810.765
796.486
775.026
1035.93
953.621
934.904
953.621
1035.93
775.026
796.487
867.442
790.552
1072.45
648.473
683.171
648.473
1072.45
790.553
867.444
1006.27
823.688
823.69
1006.27
883.166
1028.45
635.098
508.019
546.346
508.02
635.099
1028.45
883.168
511.459
1248.49
964.819
843.094
819.448
843.095
964.822
1248.49
511.461
886.326
823.212
819.343
823.213
886.328
865.69
798.568
801.349
798.569
865.692
856.836
786.873
791.066
786.874
856.837
852.06
783.748
788.294
783.748
852.062
849.411
785.598
790.354
785.599
849.413
847.149
788.775
793.848
788.775
847.15
845.423
792.43
797.761
792.43
845.424
844.211
796.277
801.743
796.277
844.212
843.446
800.18
805.658
800.18
843.447
843.095
804.089
809.468
804.089
843.096
842.746
807.552
812.86
807.552
842.746
843.561
813.211
817.929
813.211
843.562
689.225
678.922
770.543
830.793
841.67
830.791
770.541
678.921
689.225
727.863
705.628
783.569
831.892
839.171
831.89
783.567
705.626
727.861
720.951
722.681
788.676
826.937
832.737
826.936
788.673
722.678
720.947
732.905
744.001
794.053
822.785
827.707
822.784
794.05
743.998
732.901
759.071
769.093
803.211
823.09
826.83
823.088
803.207
769.089
759.068
787.005
793.184
814.57
827.173
829.628
827.172
814.567
793.18
787.002
810.103
813.184
825.715
833.066
834.454
833.064
825.712
813.181
810.099
827.041
828.233
835.151
839.107
839.773
839.106
835.147
828.23
827.038
838.726
838.892
842.445
844.373
844.612
844.372
842.441
838.888
838.722
846.569
846.174
847.739
848.502
848.511
848.501
847.736
846.17
846.565
852.032
851.145
851.386
851.437
851.324
851.436
851.383
851.141
852.028
856.948
854.893
853.737
853.212
853.042
853.211
853.733
854.889
856.943
865.608
858.886
855.002
853.834
853.725
853.833
854.998
858.882
865.604
874.595
861.488
854.615
853.357
853.775
853.355
854.613
861.485
874.592
1198.44
912.188
857.48
853.454
855.333
853.453
857.478
912.184
1198.43
662.717
725.223
811.078
853.397
864.392
853.396
811.075
725.22
662.714
487.569
940.454
998.141
905.803
900.165
905.801
998.137
940.453
487.569
462.89
1078.46
1248.12
994.058
944.522
994.056
1248.11
1078.46
462.89
386.859
925.453
1228.78
1017.3
960.626
1017.3
1228.78
925.452
386.859
452.006
857.388
1144.05
998.595
953.929
998.595
1144.04
857.386
452.006
540.089
835.463
1064.72
968.474
937.951
968.474
1064.72
835.46
540.089
617.778
831.858
1004.8
940.871
921.176
940.871
1004.8
831.856
617.778
677.857
833.73
961.59
919.149
906.843
919.149
961.59
833.729
677.856
723.376
836.63
930.576
903.016
895.626
903.015
930.575
836.629
723.374
757.956
839.916
908.754
891.669
887.558
891.669
908.752
839.914
757.955
783.756
843.251
894.125
884.676
882.831
884.676
894.124
843.25
783.756
801.97
846.048
885.718
882.44
882.264
882.44
885.716
846.047
801.97
812.565
846.221
884.921
886.759
887.635
886.76
884.92
846.222
812.564
818.353
837.709
891.241
903.12
902.14
903.12
891.242
837.709
818.353
798.301
773.208
1030.11
934.905
912.747
934.905
1030.11
773.209
798.302
868.803
807.062
1138.63
683.172
729.551
683.172
1138.63
807.063
868.805
1011.44
836.581
836.583
1011.44
890.025
1028.31
668.459
546.348
606.557
546.353
668.465
1028.31
890.026
496.15
1251.61
981.126
819.45
780.014
819.455
981.13
1251.61
496.151
920.715
819.346
799.761
819.349
920.715
905.491
801.352
791.259
801.354
905.49
895.388
791.068
784.756
791.07
895.386
887.982
788.296
784.309
788.298
887.98
882.658
790.356
788.195
790.358
882.657
877.982
793.849
793.349
793.851
877.98
874.002
797.762
798.613
797.763
874.001
870.642
801.744
803.605
801.745
870.641
867.816
805.659
808.228
805.66
867.814
865.481
809.469
812.48
809.47
865.48
863.386
812.861
816.281
812.861
863.385
861.556
817.93
820.983
817.931
861.555
356.361
502.224
723.84
816.684
830.79
816.683
723.839
502.223
356.361
389.22
558.95
768.664
830.108
831.889
830.107
768.661
558.949
389.22
446.404
599.866
774.467
825.776
826.935
825.774
774.462
599.864
446.403
544.294
651.045
776.952
819.503
822.783
819.5
776.947
651.043
544.293
642.138
705.947
788.048
819.346
823.088
819.343
788.044
705.944
642.136
718.639
753.699
803.74
824.254
827.171
824.25
803.735
753.696
718.637
771.544
789.867
818.916
831.23
833.064
831.225
818.911
789.865
771.542
805.932
814.983
831.195
838.116
839.105
838.112
831.19
814.981
805.93
827.499
831.579
840.26
843.918
844.371
843.914
840.256
831.577
827.496
840.73
842.208
846.571
848.348
848.501
848.345
846.567
842.205
840.727
848.883
848.906
850.729
851.429
851.436
851.427
850.725
848.903
848.881
854.424
853.15
853.175
853.227
853.211
853.224
853.171
853.147
854.422
859.678
855.797
853.913
853.636
853.833
853.634
853.91
855.795
859.675
864.201
855.45
851.887
852.26
853.355
852.258
851.884
855.448
864.197
901.003
851.801
844.963
848.966
853.453
848.964
844.961
851.798
901
728.48
770.33
822.124
845.225
853.395
845.223
822.122
770.328
728.479
418.511
638.44
808.898
861.283
905.801
861.281
808.897
638.438
418.511
280.097
557.403
803.388
882.117
994.056
882.116
803.386
557.402
280.097
262.915
535.414
792.537
883.414
1017.3
883.413
792.535
535.413
262.915
329.647
565.611
791.741
876.683
998.594
876.682
791.739
565.609
329.647
427.962
617.424
799.609
870.157
968.474
870.156
799.608
617.422
427.962
524.707
670.548
810.885
865.926
940.871
865.925
810.884
670.546
524.707
606.38
716.284
821.99
863.601
919.149
863.601
821.988
716.283
606.379
671.01
752.827
831.5
862.591
903.016
862.59
831.498
752.826
671.01
720.502
781.041
839.341
862.627
891.669
862.626
839.34
781.04
720.501
757.359
802.362
846.064
863.988
884.677
863.987
846.064
802.36
757.357
783.621
817.934
852.838
867.765
882.44
867.765
852.838
817.933
783.621
800.235
827.409
863.015
876.615
886.76
876.615
863.015
827.408
800.235
810.766
826.738
877.281
898.189
903.121
898.189
877.281
826.738
810.766
796.488
775.028
1035.94
953.623
934.906
953.623
1035.94
775.029
796.488
867.444
790.554
1072.45
648.475
683.174
648.474
1072.45
790.556
867.446
1006.27
823.69
823.693
1006.28
883.169
1028.45
635.1
508.023
546.354
508.025
635.104
1028.46
883.17
511.462
1248.49
964.824
843.1
819.457
843.101
964.826
1248.49
511.461
886.33
823.217
819.351
823.218
886.329
865.695
798.573
801.356
798.574
865.692
856.84
786.878
791.071
786.878
856.837
852.064
783.752
788.299
783.752
852.061
849.415
785.602
790.359
785.602
849.412
847.153
788.778
793.852
788.779
847.15
845.426
792.433
797.765
792.433
845.423
844.214
796.28
801.746
796.28
844.212
843.449
800.182
805.661
800.183
843.446
843.098
804.091
809.471
804.092
843.096
842.748
807.554
812.862
807.555
842.746
843.564
813.213
817.932
813.213
843.562
312.672
445.083
658.723
723.838
770.539
723.839
658.721
445.082
312.672
345.15
555.024
768.001
768.661
783.565
768.661
768
555.023
345.15
341.153
533.806
743.347
774.464
788.672
774.462
743.346
533.805
341.153
442.199
564.468
728.181
776.949
794.05
776.947
728.18
564.467
442.199
565.32
631.787
743.603
788.045
803.207
788.043
743.602
631.787
565.319
668.308
701.905
772.077
803.737
814.566
803.735
772.077
701.906
668.307
740.964
757.409
799.028
818.914
825.711
818.911
799.027
757.409
740.963
788.319
795.758
819.506
831.193
835.147
831.19
819.506
795.758
788.317
817.777
820.595
833.684
840.259
842.441
840.256
833.683
820.595
817.776
835.471
836.043
842.987
846.57
847.736
846.567
842.986
836.041
835.469
845.8
845.319
848.79
850.728
851.383
850.725
848.788
845.316
845.798
851.649
850.521
851.989
853.174
853.732
853.171
851.987
850.52
851.647
854.668
852.572
852.707
853.912
854.998
853.91
852.705
852.571
854.666
854.806
850.636
849.757
851.886
854.613
851.885
849.756
850.635
854.804
850.208
841.402
840.359
844.963
857.478
844.961
840.357
841.4
850.206
823.245
817.129
822.1
822.123
811.075
822.122
822.097
817.128
823.244
775.835
776.59
809.472
808.898
998.138
808.896
809.471
776.588
775.834
693.112
729.51
798.838
803.388
1248.11
803.385
798.837
729.509
693.11
642.717
705.383
787.101
792.537
1228.78
792.535
787.1
705.381
642.716
645.846
709.873
784.049
791.741
1144.04
791.739
784.049
709.871
645.845
675.527
729.493
789.393
799.61
1064.72
799.607
789.392
729.491
675.525
711.546
753.328
799.235
810.885
1004.8
810.883
799.235
753.326
711.544
744.468
775.809
810.208
821.99
961.591
821.988
810.206
775.808
744.466
771.493
794.837
820.451
831.5
930.576
831.498
820.449
794.836
771.492
792.542
810.052
829.3
839.34
908.753
839.339
829.3
810.052
792.542
808.222
821.72
836.786
846.064
894.124
846.064
836.786
821.719
808.222
819.076
830.118
843.577
852.838
885.718
852.838
843.577
830.117
819.076
825.209
834.897
853.538
863.015
884.922
863.015
853.538
834.897
825.209
829.966
835.076
859.642
877.282
891.243
877.282
859.642
835.076
829.966
815.729
781.472
1049.5
1035.94
1030.12
1035.94
1049.5
781.473
815.73
882.132
911.239
1612.65
1072.45
1138.63
1072.45
1612.65
911.24
882.133
995.991
955.604
955.606
995.991
882.974
1046.36
667.053
635.104
668.466
635.104
667.053
1046.36
882.975
648.323
1183.51
930.618
964.827
981.131
964.826
930.618
1183.51
648.322
827.931
886.33
920.716
886.329
827.931
821.725
865.694
905.491
865.693
821.725
824.455
856.839
895.388
856.838
824.455
826.351
852.063
887.981
852.062
826.35
827.376
849.414
882.658
849.413
827.375
827.475
847.151
877.982
847.151
827.475
827.621
845.425
874.002
845.424
827.62
828.055
844.213
870.642
844.212
828.054
828.788
843.447
867.815
843.447
828.787
829.837
843.097
865.481
843.096
829.837
830.677
842.747
863.386
842.746
830.677
833.234
843.562
861.555
843.562
833.234
286.133
323.257
445.082
502.224
678.919
502.223
445.082
323.258
286.133
331.468
424.602
555.023
558.949
705.625
558.949
555.023
424.602
331.468
299.805
393.732
533.805
599.864
722.677
599.864
533.804
393.732
299.804
374.972
438.244
564.467
651.043
743.997
651.043
564.467
438.243
374.971
498.565
534.476
631.787
705.944
769.089
705.944
631.787
534.475
498.564
617.723
635.666
701.905
753.695
793.179
753.696
701.906
635.665
617.722
708.238
716.184
757.408
789.864
813.179
789.864
757.409
716.184
708.237
768.968
771.563
795.758
814.98
828.228
814.98
795.758
771.562
768.967
806.98
806.991
820.594
831.576
838.886
831.576
820.595
806.99
806.977
829.655
828.64
836.042
842.206
846.169
842.206
836.041
828.639
829.652
842.602
841.341
845.318
848.905
851.142
848.904
845.316
841.34
842.6
849.498
848.276
850.521
853.148
854.89
853.148
850.52
848.275
849.497
852.457
851.119
852.571
855.796
858.883
855.795
852.571
851.118
852.455
852.484
850.151
850.636
855.449
861.485
855.448
850.635
850.15
852.482
850.194
844.719
841.401
851.799
912.184
851.799
841.4
844.718
850.192
849.609
836.533
817.129
770.329
725.22
770.329
817.128
836.532
849.607
886.261
841.996
776.589
638.439
940.452
638.439
776.588
841.994
886.259
914.353
845.944
729.509
557.403
1078.46
557.402
729.509
845.941
914.35
903.903
837.13
705.382
535.414
925.453
535.413
705.382
837.129
903.902
885.176
829.242
709.872
565.61
857.387
565.609
709.872
829.241
885.175
870.949
826.853
729.492
617.423
835.462
617.422
729.492
826.852
870.948
862.503
828.726
753.327
670.547
831.857
670.546
753.327
828.725
862.502
857.936
832.574
775.809
716.284
833.731
716.282
775.808
832.573
857.936
855.491
836.778
794.837
752.827
836.631
752.825
794.836
836.777
855.49
854.045
840.488
810.052
781.04
839.915
781.039
810.052
840.488
854.045
852.852
843.255
821.72
802.362
843.251
802.361
821.719
843.256
852.852
851.321
844.663
830.118
817.934
846.049
817.934
830.118
844.664
851.321
848.973
843.732
834.898
827.41
846.223
827.409
834.898
843.732
848.973
846.455
839.661
835.076
826.739
837.711
826.739
835.077
839.66
846.455
843.185
811.539
781.473
775.03
773.21
775.03
781.474
811.54
843.186
866.013
807.727
911.24
790.555
807.065
790.557
911.242
807.729
866.014
907.294
836.148
955.605
823.692
836.584
823.694
955.607
836.149
907.294
919.76
919.688
1046.36
1028.46
1028.31
1028.46
1046.36
919.689
919.761
937.901
1078.99
1183.51
1248.49
1251.61
1248.49
1183.51
1078.99
937.903
293.207
286.133
312.672
356.361
689.224
356.361
312.672
286.133
293.207
329.867
331.468
345.15
389.22
727.861
389.219
345.15
331.468
329.867
286.098
299.805
341.154
446.404
720.947
446.403
341.154
299.804
286.097
362.863
374.972
442.199
544.293
732.901
544.293
442.199
374.971
362.862
491.237
498.565
565.32
642.137
759.067
642.137
565.319
498.564
491.236
616.112
617.723
668.307
718.637
787.001
718.638
668.307
617.722
616.111
710.117
708.238
740.964
771.542
810.1
771.542
740.963
708.237
710.116
772.35
768.968
788.318
805.929
827.037
805.93
788.318
768.967
772.349
810.541
806.979
817.776
827.495
838.721
827.496
817.776
806.977
810.539
832.734
829.653
835.469
840.727
846.566
840.727
835.469
829.652
832.732
844.961
842.601
845.798
848.881
852.028
848.881
845.798
842.6
844.959
851.129
849.498
851.648
854.422
856.944
854.422
851.648
849.497
851.128
853.58
852.457
854.667
859.675
865.605
859.675
854.666
852.455
853.578
853.894
852.484
854.805
864.197
874.592
864.197
854.803
852.482
853.892
854.305
850.194
850.207
901.002
1198.43
901.001
850.205
850.192
854.303
860.097
849.608
823.245
728.48
662.714
728.479
823.244
849.607
860.096
890.174
886.261
775.834
418.511
487.569
418.511
775.834
886.26
890.172
925.422
914.353
693.11
280.097
462.89
280.097
693.111
914.351
925.421
933.614
903.903
642.715
262.915
386.859
262.915
642.716
903.902
933.612
923.562
885.176
645.845
329.647
452.005
329.647
645.846
885.175
923.56
908.428
870.949
675.525
427.962
540.089
427.962
675.526
870.949
908.427
894.692
862.503
711.545
524.707
617.778
524.707
711.545
862.503
894.69
883.945
857.936
744.466
606.379
677.857
606.378
744.467
857.936
883.944
875.871
855.49
771.493
671.01
723.374
671.009
771.493
855.49
875.87
869.733
854.045
792.542
720.502
757.956
720.501
792.542
854.045
869.732
864.811
852.852
808.222
757.358
783.757
757.358
808.223
852.852
864.81
860.529
851.321
819.076
783.622
801.971
783.621
819.076
851.321
860.529
856.711
848.973
825.209
800.236
812.565
800.236
825.21
848.973
856.711
854.381
846.455
829.967
810.767
818.354
810.767
829.967
846.455
854.382
856.766
843.185
815.73
796.489
798.303
796.489
815.73
843.186
856.767
877.13
866.013
882.133
867.446
868.806
867.446
882.133
866.014
877.13
908.578
907.293
995.991
1006.28
1011.45
1006.28
995.991
907.295
908.578
925.471
919.759
882.975
883.17
890.028
883.171
882.974
919.761
925.472
938.107
937.904
648.324
511.463
496.151
511.462
648.323
937.906
938.111
)
;

boundaryField
{
    injectionXMinus
    {
        type            uniformFixedValue;
        uniformValue    uniform 400;
        value           uniform 400;
    }
    injectionXPlus
    {
        type            uniformFixedValue;
        uniformValue    uniform 400;
        value           uniform 400;
    }
    injectionYMinus
    {
        type            uniformFixedValue;
        uniformValue    uniform 400;
        value           uniform 400;
    }
    injectionYPlus
    {
        type            uniformFixedValue;
        uniformValue    uniform 400;
        value           uniform 400;
    }
    inletXMinus
    {
        type            uniformFixedValue;
        uniformValue    uniform 293.15;
        value           uniform 293.15;
    }
    inletXPlus
    {
        type            uniformFixedValue;
        uniformValue    uniform 293.15;
        value           uniform 293.15;
    }
    inletYMinus
    {
        type            uniformFixedValue;
        uniformValue    uniform 293.15;
        value           uniform 293.15;
    }
    inletYPlus
    {
        type            uniformFixedValue;
        uniformValue    uniform 293.15;
        value           uniform 293.15;
    }
    outlet
    {
        type            zeroGradient;
    }
    valve
    {
        type            zeroGradient;
    }
    walls
    {
        type            zeroGradient;
    }
}


// ************************************************************************* //
