/*--------------------------------*- C++ -*----------------------------------*\
  =========                 |
  \\      /  F ield         | OpenFOAM: The Open Source CFD Toolbox
   \\    /   O peration     | Website:  https://openfoam.org
    \\  /    A nd           | Version:  6
     \\/     M anipulation  |
\*---------------------------------------------------------------------------*/
FoamFile
{
    version     2.0;
    format      ascii;
    class       volScalarField;
    location    "1";
    object      T;
}
// * * * * * * * * * * * * * * * * * * * * * * * * * * * * * * * * * * * * * //

dimensions      [0 0 0 1 0 0 0];

internalField   nonuniform List<scalar> 
3029
(
277.841
271.498
303.984
245.904
310.214
245.904
303.984
271.498
277.841
314.604
319.569
341.93
271.3
334.605
271.3
341.93
319.569
314.604
255.96
262.168
295.171
265.38
320.368
265.38
295.171
262.168
255.96
258.452
254.161
289.82
265.354
307.643
265.354
289.819
254.16
258.452
267.584
256.916
289.11
267.073
300.247
267.073
289.109
256.915
267.583
273.722
260.481
288.748
268.779
296.175
268.779
288.747
260.48
273.721
276.885
263.048
288.387
270.207
293.795
270.206
288.385
263.046
276.883
278.273
264.713
288.021
271.408
292.248
271.407
288.018
264.711
278.272
278.743
265.816
287.66
272.456
291.129
272.455
287.657
265.813
278.741
278.762
266.601
287.314
273.399
290.246
273.398
287.31
266.598
278.76
278.561
267.205
286.993
274.287
289.605
274.286
286.989
267.201
278.558
278.242
267.691
286.693
275.13
288.953
275.128
286.689
267.687
278.239
277.828
268.089
286.389
276.248
289.992
276.247
286.385
268.085
277.825
277.329
268.372
285.926
276.868
287.23
276.867
285.921
268.367
277.325
276.878
268.641
285.074
280.649
318.601
280.647
285.069
268.635
276.874
276.862
268.924
281.906
266.544
262.627
266.542
281.902
268.918
276.857
278.93
273.12
281.604
244.222
415.846
244.22
281.599
273.114
278.925
282.045
278.528
278.693
236.323
487.694
236.321
278.688
278.521
282.039
283.617
280.152
271.792
232.615
463.292
232.612
271.787
280.146
283.611
283.973
280.064
267.78
236.915
474.785
236.912
267.775
280.057
283.967
283.838
279.602
266.081
242.382
478.257
242.379
266.076
279.595
283.832
283.58
279.157
265.471
247.289
475.891
247.285
265.466
279.15
283.573
283.302
278.769
265.285
251.611
471.264
251.607
265.28
278.762
283.296
282.998
278.389
265.228
255.567
466.001
255.563
265.223
278.382
282.992
282.619
277.948
265.154
259.327
460.655
259.323
265.15
277.941
282.613
282.097
277.35
264.911
262.955
455.295
262.951
264.907
277.343
282.091
281.374
276.485
264.437
266.566
449.9
266.562
264.432
276.478
281.368
280.474
275.139
263.069
269.494
443.334
269.491
263.064
275.132
280.467
279.842
273.616
262.705
273.612
437.785
273.608
262.701
273.609
279.835
280.663
271.969
257.264
270.277
422.369
270.274
257.259
271.962
280.656
287.225
278.224
275.392
297.497
450.012
297.494
275.387
278.217
287.218
298.393
291.789
311.195
343.155
507.717
343.152
311.19
291.782
298.386
306.843
298.897
275.319
301.889
450.21
301.886
275.314
298.89
306.835
327.619
330.076
201.342
136.907
201.897
136.905
201.338
330.069
327.612
271.498
253.688
314.011
256.928
260.343
256.928
314.01
253.688
271.498
319.569
349.159
414.988
301.359
275.691
301.359
414.988
349.159
319.569
262.168
288.318
359.281
303.577
278.499
303.577
359.28
288.318
262.168
254.161
261.658
325.21
298.992
277.9
298.992
325.209
261.657
254.16
256.916
255
310.101
295.635
277.323
295.635
310.099
254.998
256.915
260.481
255.065
303.866
293.922
277.283
293.921
303.863
255.064
260.479
263.047
256.782
301.292
293.203
277.633
293.203
301.289
256.779
263.045
264.713
258.674
300.186
292.99
278.192
292.989
300.183
258.672
264.711
265.816
260.421
299.673
293.016
278.849
293.016
299.67
260.418
265.813
266.601
261.995
299.402
293.152
279.544
293.151
299.398
261.991
266.597
267.204
263.42
299.226
293.337
280.278
293.336
299.221
263.416
267.2
267.69
264.699
299.072
293.526
280.965
293.525
299.067
264.694
267.686
268.089
265.848
298.842
293.738
282.154
293.736
298.837
265.842
268.084
268.372
266.801
298.33
293.543
281.832
293.541
298.325
266.795
268.367
268.64
267.504
297.079
292.959
290.186
292.958
297.073
267.497
268.634
268.923
267.928
294.096
284.698
259.024
284.696
294.09
267.922
268.917
273.119
270.042
290.292
268.977
356.391
268.975
290.286
270.035
273.113
278.527
272.441
284.257
262.25
530.689
262.248
284.251
272.433
278.52
280.152
272.904
278.681
260.517
541.042
260.514
278.675
272.897
280.144
280.063
272.674
275.66
263.168
534.968
263.164
275.655
272.666
280.056
279.601
272.49
274.492
267.225
526.484
267.221
274.486
272.482
279.593
279.156
272.474
274.249
271.381
517.445
271.377
274.243
272.466
279.149
278.768
272.562
274.404
275.33
508.452
275.326
274.398
272.555
278.76
278.388
272.675
274.713
279.099
499.666
279.095
274.708
272.667
278.38
277.948
272.753
275.089
282.812
491.134
282.807
275.084
272.745
277.94
277.349
272.685
275.43
286.636
482.683
286.632
275.424
272.677
277.341
276.485
272.463
275.972
290.768
473.844
290.764
275.966
272.455
276.477
275.139
271.188
275.318
295.031
462.535
295.026
275.312
271.18
275.131
273.616
270.242
278.771
298.287
445.328
298.283
278.765
270.234
273.608
271.968
258.516
251.565
284.105
391.501
284.102
251.559
258.509
271.961
278.224
260.629
336.645
303.884
381.659
303.882
336.64
260.622
278.216
291.789
268.994
369.291
320.206
382.23
320.204
369.286
268.988
291.781
298.897
285.969
375.269
390.6
493.716
390.597
375.263
285.962
298.89
330.076
373.523
400.463
406.19
527.146
406.185
400.456
373.515
330.069
303.984
314.011
345.351
301.632
261.713
301.632
345.35
314.01
303.984
341.93
414.988
447.385
346.489
271.665
346.489
447.384
414.988
341.93
295.171
359.28
428.776
356.631
276.276
356.631
428.775
359.279
295.17
289.82
325.21
399.308
353.359
277.912
353.359
399.306
325.208
289.819
289.11
310.101
379.646
348.096
278.855
348.096
379.643
310.099
289.109
288.748
303.865
368.136
343.761
279.904
343.761
368.132
303.863
288.746
288.386
301.291
361.219
340.541
281.173
340.54
361.215
301.288
288.384
288.02
300.186
356.645
338.098
282.585
338.097
356.641
300.182
288.017
287.659
299.673
353.253
336.134
284.05
336.133
353.248
299.668
287.656
287.313
299.402
350.474
334.456
285.498
334.455
350.468
299.397
287.309
286.992
299.225
348.027
332.951
286.893
332.949
348.021
299.22
286.987
286.692
299.071
345.749
331.531
288.191
331.53
345.743
299.066
286.687
286.388
298.841
343.491
330.107
289.427
330.106
343.484
298.835
286.382
285.925
298.329
340.988
328.432
290.258
328.431
340.982
298.323
285.919
285.073
297.078
337.809
326.146
291.783
326.145
337.802
297.071
285.066
281.905
294.095
333.285
321.904
288.495
321.903
333.278
294.088
281.898
281.602
290.291
329.118
317.699
302.063
317.697
329.111
290.283
281.595
278.692
284.256
325.126
314.626
349.979
314.624
325.119
284.248
278.684
271.79
278.68
320.649
311.428
369.747
311.426
320.642
278.672
271.783
267.778
275.659
317.123
309.786
376.294
309.783
317.116
275.652
267.771
266.08
274.491
314.698
309.423
378.049
309.421
314.691
274.483
266.072
265.47
274.248
312.995
309.755
378.114
309.752
312.987
274.24
265.462
265.284
274.403
311.691
310.43
377.578
310.426
311.684
274.395
265.276
265.227
274.713
310.633
311.329
376.885
311.326
310.626
274.705
265.219
265.154
275.089
309.763
312.469
376.156
312.466
309.756
275.081
265.146
264.911
275.43
309.207
314.165
375.563
314.162
309.2
275.422
264.903
264.436
275.971
308.894
316.388
374.804
316.385
308.887
275.964
264.429
263.068
275.318
311.448
322.988
376.409
322.985
311.441
275.31
263.061
262.705
278.771
314.406
326.904
373.8
326.901
314.399
278.763
262.698
257.264
251.564
376.971
408.578
432.665
408.575
376.963
251.558
257.257
275.391
336.645
705.264
425.103
469.995
425.101
705.257
336.639
275.385
311.195
369.291
369.285
311.187
275.319
375.269
246.642
248.579
319.347
248.577
246.638
375.262
275.312
201.342
400.464
327.56
342.765
431.341
342.76
327.554
400.455
201.338
290.946
312.136
398.927
312.132
290.94
291.16
307.246
393.283
307.242
291.154
294.489
307.291
391.621
307.287
294.483
296.596
308.025
390.66
308.021
296.591
297.794
308.773
389.916
308.769
297.788
298.581
309.477
389.276
309.473
298.575
299.221
310.165
388.701
310.161
299.215
299.828
310.863
388.177
310.859
299.822
300.431
311.566
387.695
311.562
300.425
301.101
312.337
387.257
312.333
301.095
301.648
312.969
386.888
312.965
301.642
302.792
314.252
386.354
314.247
302.786
245.903
256.928
301.632
307.747
278.452
307.745
301.63
256.927
245.903
271.3
301.358
346.488
327.934
282.097
327.932
346.486
301.358
271.299
265.38
303.576
356.63
336.219
282.985
336.217
356.628
303.575
265.38
265.353
298.991
353.357
336.782
282.448
336.78
353.355
298.99
265.353
267.073
295.634
348.094
334.759
281.879
334.757
348.092
295.632
267.072
268.779
293.92
343.759
332.372
281.774
332.37
343.756
293.918
268.777
270.206
293.202
340.538
330.259
282.141
330.258
340.535
293.199
270.204
271.407
292.988
338.095
328.493
282.842
328.491
338.092
292.985
271.405
272.454
293.014
336.131
327.003
283.738
327.001
336.127
293.011
272.452
273.397
293.149
334.454
325.709
284.725
325.708
334.45
293.145
273.394
274.285
293.335
332.948
324.549
285.737
324.548
332.943
293.33
274.281
275.127
293.524
331.529
323.472
286.729
323.47
331.524
293.519
275.123
276.246
293.735
330.105
322.429
287.671
322.427
330.099
293.73
276.241
276.866
293.54
328.43
321.346
288.544
321.344
328.424
293.534
276.861
280.647
292.957
326.144
320.23
289.501
320.228
326.138
292.951
280.641
266.542
284.695
321.902
319.186
290.979
319.184
321.896
284.69
266.536
244.22
268.974
317.696
320.417
296.097
320.415
317.69
268.968
244.215
236.322
262.247
314.624
322.476
303.269
322.473
314.617
262.242
236.318
232.613
260.515
311.426
322.532
307.502
322.529
311.419
260.509
232.61
236.913
263.165
309.783
321.749
309.852
321.746
309.777
263.159
236.91
242.381
267.222
309.421
320.985
311.499
320.982
309.414
267.216
242.377
247.287
271.378
309.753
320.484
312.986
320.481
309.746
271.372
247.283
251.609
275.327
310.427
320.269
314.516
320.266
310.42
275.321
251.605
255.565
279.096
311.327
320.361
316.194
320.358
311.32
279.09
255.561
259.324
282.808
312.467
320.836
318.138
320.833
312.46
282.802
259.32
262.952
286.633
314.163
321.988
320.63
321.985
314.156
286.626
262.948
266.563
290.764
316.386
324.147
324.024
324.143
316.379
290.758
266.558
269.492
295.027
322.986
329.694
330.112
329.691
322.979
295.02
269.487
273.608
298.283
326.902
337.138
337.894
337.135
326.896
298.277
273.604
270.274
284.102
408.576
377.476
366.002
377.472
408.569
284.096
270.27
297.493
303.882
425.101
229.777
249.294
229.776
425.097
303.877
297.489
343.151
320.204
320.2
343.147
301.886
390.598
248.578
189.981
226.569
189.98
248.575
390.592
301.881
136.906
406.188
342.763
308.017
340.007
308.014
342.758
406.18
136.903
312.135
297.213
335.448
297.21
312.129
307.245
288.377
326.469
288.373
307.239
307.29
285.431
322.132
285.428
307.284
308.024
285.073
320.6
285.069
308.018
308.772
285.656
320.309
285.652
308.766
309.476
286.56
320.514
286.556
309.47
310.164
287.577
320.917
287.573
310.158
310.862
288.646
321.412
288.642
310.856
311.565
289.729
321.95
289.726
311.559
312.336
290.896
322.569
290.892
312.33
312.968
291.857
323.081
291.854
312.962
314.251
293.742
324.159
293.738
314.245
310.212
260.341
261.711
278.45
275.637
278.448
261.71
260.34
310.212
334.604
275.69
271.664
282.095
275.387
282.093
271.662
275.689
334.603
320.367
278.498
276.274
282.984
273.179
282.981
276.272
278.497
320.366
307.641
277.898
277.91
282.447
270.57
282.445
277.908
277.897
307.639
300.245
277.321
278.853
281.878
268.629
281.875
278.85
277.319
300.243
296.173
277.282
279.901
281.772
267.612
281.77
279.899
277.279
296.17
293.793
277.631
281.17
282.139
267.386
282.137
281.168
277.629
293.79
292.245
278.19
282.583
282.84
267.721
282.838
282.58
278.187
292.242
291.126
278.847
284.047
283.736
268.418
283.734
284.044
278.844
291.123
290.244
279.541
285.496
284.723
269.337
284.721
285.492
279.537
290.24
289.603
280.275
286.89
285.735
270.386
285.733
286.886
280.271
289.599
288.95
280.962
288.188
286.727
271.504
286.724
288.184
280.958
288.946
289.989
282.151
289.423
287.669
272.659
287.667
289.419
282.146
289.984
287.226
281.829
290.254
288.543
273.859
288.54
290.25
281.825
287.222
318.597
290.183
291.779
289.5
275.319
289.497
291.775
290.178
318.592
262.623
259.021
288.492
290.977
277.641
290.974
288.487
259.017
262.618
415.845
356.387
302.06
296.095
283.134
296.092
302.054
356.382
415.843
487.694
530.685
349.975
303.267
289.586
303.264
349.97
530.68
487.694
463.292
541.039
369.743
307.5
293.581
307.497
369.737
541.034
463.291
474.785
534.965
376.29
309.85
295.904
309.847
376.284
534.961
474.785
478.257
526.481
378.045
311.497
297.649
311.494
378.039
526.476
478.256
475.891
517.443
378.11
312.984
299.363
312.98
378.105
517.438
475.89
471.265
508.45
377.574
314.514
301.255
314.51
377.569
508.445
471.264
466.002
499.664
376.881
316.192
303.433
316.189
376.875
499.659
466.001
460.656
491.132
376.153
318.137
306.039
318.133
376.147
491.127
460.654
455.297
482.682
375.56
320.629
309.391
320.625
375.555
482.678
455.295
449.901
473.844
374.801
324.023
313.994
324.019
374.796
473.839
449.899
443.336
462.535
376.407
330.111
321.379
330.108
376.401
462.53
443.335
437.787
445.328
373.798
337.893
331.346
337.89
373.793
445.323
437.786
422.372
391.501
432.663
366.001
351.499
365.998
432.657
391.497
422.37
450.015
381.659
469.993
249.294
278.119
249.293
469.988
381.654
450.013
507.72
382.229
382.225
507.718
450.213
493.717
319.348
226.567
204.092
226.565
319.345
493.713
450.212
201.898
527.15
431.343
340.007
273.985
340.004
431.339
527.146
201.898
398.929
335.448
280.268
335.446
398.926
393.285
326.469
276.451
326.467
393.282
391.623
322.133
274.214
322.131
391.62
390.662
320.601
273.987
320.599
390.659
389.919
320.31
274.855
320.308
389.915
389.279
320.515
276.198
320.513
389.275
388.704
320.917
277.731
320.916
388.7
388.179
321.412
279.343
321.411
388.176
387.697
321.95
280.968
321.949
387.694
387.259
322.57
282.692
322.568
387.256
386.89
323.082
284.118
323.081
386.887
386.357
324.159
286.829
324.158
386.353
245.904
256.927
301.63
307.744
278.448
307.744
301.63
256.927
245.903
271.3
301.358
346.487
327.931
282.093
327.931
346.487
301.358
271.299
265.38
303.576
356.629
336.216
282.981
336.216
356.628
303.576
265.38
265.353
298.991
353.357
336.779
282.444
336.779
353.356
298.99
265.352
267.072
295.633
348.094
334.756
281.875
334.755
348.092
295.632
267.071
268.778
293.92
343.758
332.369
281.769
332.369
343.757
293.918
268.777
270.205
293.201
340.537
330.257
282.136
330.256
340.535
293.199
270.203
271.406
292.987
338.094
328.49
282.837
328.49
338.092
292.985
271.404
272.453
293.013
336.13
327
283.733
327
336.127
293.011
272.451
273.395
293.148
334.452
325.706
284.72
325.705
334.45
293.145
273.393
274.283
293.333
332.946
324.546
285.732
324.545
332.943
293.33
274.281
275.125
293.522
331.527
323.469
286.724
323.468
331.523
293.518
275.123
276.244
293.733
330.103
322.425
287.666
322.424
330.099
293.729
276.241
276.864
293.537
328.427
321.342
288.54
321.341
328.424
293.534
276.86
280.644
292.954
326.141
320.226
289.496
320.225
326.137
292.95
280.64
266.539
284.693
321.899
319.182
290.973
319.181
321.895
284.689
266.535
244.218
268.972
317.693
320.413
296.091
320.411
317.689
268.968
244.214
236.319
262.245
314.621
322.471
303.263
322.47
314.617
262.241
236.317
232.611
260.512
311.423
322.527
307.496
322.526
311.418
260.508
232.609
236.911
263.162
309.78
321.744
309.846
321.743
309.775
263.159
236.909
242.378
267.22
309.418
320.98
311.493
320.979
309.413
267.216
242.377
247.285
271.376
309.749
320.479
312.98
320.477
309.745
271.372
247.283
251.607
275.325
310.424
320.265
314.51
320.262
310.42
275.321
251.605
255.564
279.094
311.324
320.357
316.188
320.355
311.32
279.091
255.562
259.324
282.807
312.465
320.832
318.132
320.83
312.46
282.804
259.322
262.953
286.633
314.161
321.984
320.625
321.982
314.156
286.629
262.951
266.564
290.765
316.384
324.143
324.019
324.14
316.38
290.762
266.562
269.494
295.029
322.984
329.69
330.107
329.688
322.98
295.025
269.492
273.612
298.286
326.901
337.134
337.89
337.133
326.897
298.282
273.61
270.278
284.105
408.575
377.472
365.998
377.47
408.571
284.101
270.276
297.498
303.884
425.1
229.776
249.293
229.775
425.096
303.881
297.496
343.157
320.206
320.202
343.155
301.891
390.601
248.58
189.981
226.567
189.98
248.577
390.597
301.888
136.908
406.19
342.764
308.018
340.006
308.016
342.761
406.185
136.906
312.135
297.214
335.447
297.212
312.132
307.245
288.377
326.469
288.375
307.242
307.29
285.431
322.132
285.43
307.287
308.024
285.073
320.6
285.071
308.021
308.772
285.656
320.309
285.654
308.769
309.476
286.56
320.514
286.558
309.473
310.164
287.577
320.917
287.575
310.161
310.862
288.646
321.412
288.644
310.858
311.565
289.729
321.95
289.727
311.562
312.336
290.895
322.569
290.894
312.333
312.968
291.857
323.082
291.855
312.965
314.25
293.741
324.159
293.74
314.247
303.984
314.01
345.349
301.629
261.709
301.629
345.349
314.01
303.984
341.93
414.987
447.383
346.486
271.661
346.486
447.383
414.987
341.93
295.17
359.279
428.774
356.628
276.271
356.628
428.773
359.279
295.17
289.818
325.207
399.305
353.355
277.907
353.355
399.304
325.207
289.818
289.108
310.097
379.642
348.091
278.849
348.091
379.641
310.097
289.108
288.745
303.861
368.13
343.756
279.898
343.756
368.129
303.861
288.745
288.383
301.287
361.212
340.534
281.167
340.534
361.211
301.286
288.383
288.016
300.181
356.638
338.091
282.579
338.091
356.637
300.18
288.015
287.655
299.667
353.245
336.126
284.043
336.126
353.244
299.666
287.654
287.308
299.395
350.466
334.448
285.491
334.448
350.464
299.394
287.307
286.986
299.218
348.018
332.942
286.885
332.942
348.016
299.217
286.985
286.686
299.064
345.74
331.522
288.183
331.522
345.738
299.062
286.685
286.382
298.833
343.481
330.098
289.418
330.098
343.478
298.831
286.38
285.918
298.321
340.978
328.423
290.249
328.423
340.976
298.319
285.916
285.066
297.07
337.799
326.137
291.774
326.137
337.797
297.067
285.064
281.899
294.086
333.275
321.895
288.486
321.894
333.272
294.084
281.896
281.596
290.283
329.108
317.689
302.053
317.689
329.105
290.28
281.593
278.685
284.248
325.116
314.616
349.968
314.616
325.113
284.245
278.682
271.784
278.672
320.639
311.418
369.736
311.418
320.636
278.669
271.781
267.772
275.652
317.114
309.775
376.283
309.775
317.111
275.649
267.769
266.074
274.484
314.689
309.413
378.038
309.413
314.685
274.48
266.07
265.464
274.241
312.985
309.745
378.104
309.744
312.982
274.237
265.46
265.278
274.396
311.682
310.42
377.568
310.419
311.679
274.393
265.274
265.221
274.705
310.624
311.32
376.875
311.319
310.621
274.702
265.218
265.148
275.082
309.755
312.46
376.146
312.459
309.751
275.078
265.145
264.905
275.423
309.199
314.157
375.554
314.155
309.196
275.419
264.902
264.431
275.965
308.886
316.38
374.795
316.379
308.883
275.962
264.428
263.063
275.312
311.441
322.981
376.4
322.979
311.438
275.309
263.06
262.7
278.765
314.399
326.897
373.792
326.896
314.397
278.762
262.697
257.259
251.56
376.965
408.571
432.657
408.57
376.961
251.557
257.257
275.387
336.641
705.258
425.097
469.989
425.097
705.254
336.638
275.385
311.191
369.288
369.285
311.188
275.316
375.265
246.639
248.577
319.345
248.576
246.639
375.262
275.313
201.339
400.459
327.556
342.761
431.341
342.76
327.554
400.455
201.337
290.942
312.132
398.927
312.131
290.939
291.156
307.242
393.283
307.241
291.153
294.485
307.287
391.621
307.286
294.482
296.593
308.021
390.66
308.02
296.59
297.791
308.769
389.917
308.768
297.788
298.578
309.473
389.277
309.472
298.574
299.217
310.161
388.702
310.16
299.214
299.825
310.859
388.177
310.858
299.822
300.427
311.563
387.696
311.561
300.424
301.097
312.334
387.257
312.333
301.094
301.645
312.965
386.888
312.964
301.641
302.789
314.248
386.355
314.247
302.785
271.498
253.688
314.01
256.927
260.34
256.927
314.01
253.688
271.498
319.569
349.158
414.987
301.357
275.688
301.357
414.987
349.158
319.569
262.167
288.317
359.279
303.575
278.496
303.575
359.278
288.317
262.167
254.16
261.656
325.208
298.99
277.896
298.99
325.207
261.656
254.16
256.915
254.998
310.098
295.631
277.319
295.631
310.097
254.997
256.915
260.479
255.063
303.861
293.918
277.279
293.918
303.86
255.062
260.478
263.045
256.778
301.287
293.198
277.628
293.198
301.286
256.777
263.044
264.71
258.67
300.181
292.984
278.187
292.984
300.18
258.669
264.709
265.812
260.417
299.667
293.01
278.843
293.01
299.665
260.416
265.811
266.596
261.99
299.395
293.145
279.537
293.144
299.394
261.989
266.595
267.199
263.415
299.218
293.329
280.271
293.329
299.216
263.413
267.198
267.685
264.693
299.064
293.518
280.957
293.518
299.062
264.691
267.684
268.083
265.84
298.833
293.729
282.146
293.729
298.831
265.839
268.081
268.365
266.794
298.321
293.533
281.824
293.533
298.319
266.792
268.364
268.633
267.496
297.069
292.95
290.177
292.949
297.067
267.494
268.632
268.916
267.92
294.086
284.688
259.016
284.688
294.084
267.918
268.915
273.112
270.033
290.282
268.967
356.381
268.967
290.28
270.031
273.11
278.519
272.431
284.247
262.241
530.68
262.241
284.245
272.429
278.517
280.144
272.895
278.67
260.509
541.034
260.508
278.669
272.892
280.141
280.055
272.664
275.65
263.159
534.961
263.158
275.649
272.662
280.053
279.593
272.48
274.482
267.217
526.476
267.215
274.48
272.478
279.591
279.148
272.465
274.239
271.373
517.438
271.371
274.237
272.462
279.146
278.76
272.553
274.395
275.322
508.445
275.32
274.393
272.551
278.758
278.381
272.666
274.704
279.091
499.659
279.089
274.702
272.664
278.378
277.94
272.744
275.08
282.804
491.127
282.802
275.079
272.742
277.938
277.342
272.676
275.421
286.629
482.677
286.627
275.42
272.674
277.339
276.477
272.455
275.964
290.761
473.839
290.76
275.962
272.452
276.475
275.132
271.18
275.311
295.024
462.531
295.023
275.309
271.178
275.13
273.61
270.235
278.764
298.281
445.324
298.28
278.762
270.233
273.607
271.963
258.51
251.559
284.1
391.497
284.099
251.557
258.508
271.96
278.218
260.623
336.64
303.881
381.655
303.88
336.638
260.621
278.216
291.783
268.989
369.287
320.202
382.226
320.202
369.285
268.987
291.781
298.892
285.964
375.264
390.597
493.715
390.595
375.263
285.962
298.89
330.072
373.519
400.459
406.185
527.148
406.184
400.456
373.516
330.07
277.841
271.498
303.984
245.903
310.211
245.903
303.984
271.498
277.841
314.604
319.569
341.93
271.299
334.603
271.299
341.93
319.569
314.604
255.96
262.167
295.17
265.38
320.365
265.379
295.17
262.167
255.96
258.452
254.16
289.818
265.352
307.639
265.352
289.818
254.16
258.452
267.583
256.915
289.108
267.071
300.243
267.071
289.108
256.915
267.583
273.721
260.479
288.745
268.777
296.17
268.777
288.745
260.478
273.72
276.883
263.045
288.383
270.203
293.79
270.203
288.382
263.044
276.882
278.271
264.71
288.016
271.404
292.242
271.404
288.015
264.709
278.27
278.74
265.812
287.655
272.451
291.123
272.451
287.654
265.811
278.739
278.758
266.596
287.308
273.393
290.24
273.393
287.307
266.595
278.757
278.557
267.199
286.986
274.281
289.598
274.281
286.985
267.198
278.556
278.237
267.685
286.686
275.122
288.946
275.122
286.685
267.684
278.236
277.823
268.083
286.381
276.241
289.984
276.241
286.38
268.081
277.822
277.324
268.365
285.917
276.86
287.221
276.86
285.916
268.364
277.322
276.873
268.633
285.065
280.64
318.592
280.64
285.064
268.632
276.871
276.856
268.916
281.897
266.536
262.617
266.535
281.896
268.915
276.854
278.924
273.112
281.594
244.215
415.843
244.214
281.593
273.11
278.922
282.038
278.519
278.683
236.318
487.693
236.317
278.682
278.517
282.036
283.61
280.143
271.782
232.61
463.291
232.609
271.781
280.141
283.608
283.966
280.054
267.77
236.91
474.784
236.909
267.769
280.053
283.964
283.831
279.592
266.071
242.377
478.256
242.376
266.071
279.591
283.829
283.572
279.148
265.462
247.284
475.89
247.283
265.461
279.146
283.57
283.295
278.76
265.276
251.606
471.264
251.605
265.275
278.758
283.293
282.991
278.38
265.219
255.562
466.001
255.561
265.218
278.378
282.989
282.612
277.94
265.146
259.322
460.655
259.32
265.145
277.938
282.61
282.091
277.341
264.903
262.951
455.296
262.949
264.902
277.339
282.088
281.368
276.477
264.429
266.562
449.9
266.56
264.428
276.475
281.366
280.467
275.132
263.062
269.491
443.336
269.49
263.061
275.13
280.465
279.836
273.609
262.699
273.609
437.787
273.607
262.698
273.607
279.833
280.657
271.962
257.258
270.275
422.372
270.274
257.257
271.96
280.655
287.219
278.218
275.386
297.494
450.015
297.493
275.385
278.216
287.217
298.388
291.783
311.189
343.153
507.719
343.152
311.188
291.782
298.386
306.838
298.891
275.314
301.887
450.213
301.886
275.313
298.89
306.836
327.615
330.072
201.339
136.906
201.899
136.905
201.338
330.071
327.614
)
;

boundaryField
{
    injectionXMinus
    {
        type            fixedValue;
        value           uniform 400;
    }
    injectionXPlus
    {
        type            fixedValue;
        value           uniform 400;
    }
    injectionYMinus
    {
        type            fixedValue;
        value           uniform 400;
    }
    injectionYPlus
    {
        type            fixedValue;
        value           uniform 400;
    }
    inletXMinus
    {
        type            fixedValue;
        value           uniform 293.15;
    }
    inletXPlus
    {
        type            fixedValue;
        value           uniform 293.15;
    }
    inletYMinus
    {
        type            fixedValue;
        value           uniform 293.15;
    }
    inletYPlus
    {
        type            fixedValue;
        value           uniform 293.15;
    }
    outlet
    {
        type            zeroGradient;
    }
    valve
    {
        type            zeroGradient;
    }
    walls
    {
        type            zeroGradient;
    }
}


// ************************************************************************* //
