/*--------------------------------*- C++ -*----------------------------------*\
  =========                 |
  \\      /  F ield         | OpenFOAM: The Open Source CFD Toolbox
   \\    /   O peration     | Website:  https://openfoam.org
    \\  /    A nd           | Version:  6
     \\/     M anipulation  |
\*---------------------------------------------------------------------------*/
FoamFile
{
    version     2.0;
    format      ascii;
    class       volVectorField;
    location    "1";
    object      U;
}
// * * * * * * * * * * * * * * * * * * * * * * * * * * * * * * * * * * * * * //

dimensions      [0 1 -1 0 0 0 0];

internalField   nonuniform List<vector> 
3029
(
(8.51486 8.51486 2.97028)
(8.23239 6.39246 2.40486)
(7.6399 6.22677 1.88851)
(1.04277 4.29331 1.36227)
(0.692099 -1.15561e-05 1.19617)
(1.04276 -4.29333 1.36227)
(7.6399 -6.22679 1.88851)
(8.23239 -6.39247 2.40486)
(8.51486 -8.51486 2.97027)
(7.94945 7.94945 10.0416)
(7.7221 5.31069 7.67583)
(7.24006 5.18417 6.07524)
(0.865008 3.60098 3.90441)
(0.577769 -1.21397e-05 3.37066)
(0.865008 -3.601 3.90441)
(7.24006 -5.18419 6.07523)
(7.7221 -5.3107 7.67582)
(7.94945 -7.94945 10.0416)
(1.14905 1.14905 11.8446)
(1.03149 2.42606 9.38246)
(0.818249 2.45535 7.65385)
(0.477289 1.58874 5.37494)
(0.369351 -1.25688e-05 4.80041)
(0.477289 -1.58876 5.37494)
(0.818249 -2.45537 7.65385)
(1.03149 -2.42607 9.38246)
(1.14905 -1.14905 11.8446)
(0.487291 0.487294 8.57192)
(0.435808 1.11992 7.64184)
(0.350659 1.17665 6.67219)
(0.250663 0.747531 5.75543)
(0.213484 -1.29365e-05 5.44537)
(0.250663 -0.747555 5.75543)
(0.350659 -1.17667 6.67219)
(0.435807 -1.11994 7.64183)
(0.48729 -0.487296 8.57192)
(0.218967 0.218969 7.15938)
(0.197921 0.526325 6.77435)
(0.164705 0.568946 6.29117)
(0.131403 0.361923 5.8751)
(0.118353 -1.32005e-05 5.72122)
(0.131403 -0.361948 5.8751)
(0.164705 -0.568966 6.29117)
(0.197921 -0.526336 6.77435)
(0.218966 -0.218972 7.15938)
(0.102265 0.102267 6.51689)
(0.0939084 0.251719 6.34692)
(0.0809998 0.277403 6.11271)
(0.0690029 0.177583 5.91425)
(0.0642479 -1.33476e-05 5.83856)
(0.0690029 -0.177608 5.91425)
(0.0809999 -0.277423 6.11271)
(0.0939082 -0.25173 6.34692)
(0.102264 -0.10227 6.51689)
(0.0489967 0.0489987 6.21435)
(0.0457223 0.122142 6.13593)
(0.0407091 0.136271 6.02249)
(0.0362071 0.0877719 5.92582)
(0.0344234 -1.33887e-05 5.88844)
(0.0362071 -0.087797 5.92582)
(0.0407092 -0.136292 6.02249)
(0.0457222 -0.122153 6.13593)
(0.0489955 -0.0490014 6.21435)
(0.0238505 0.0238523 6.06863)
(0.0225903 0.0598618 6.03129)
(0.0206672 0.0672866 5.97584)
(0.0189655 0.0435341 5.92812)
(0.0182929 -1.33232e-05 5.90953)
(0.0189656 -0.0435591 5.92813)
(0.0206673 -0.0673068 5.97584)
(0.0225901 -0.059873 6.03129)
(0.0238494 -0.0238551 6.06863)
(0.0116541 0.0116558 5.9976)
(0.011216 0.0293454 5.97927)
(0.0105494 0.0331063 5.9516)
(0.00996412 0.0214672 5.92756)
(0.00973366 -1.31755e-05 5.91813)
(0.00996418 -0.021492 5.92756)
(0.0105495 -0.0331263 5.9516)
(0.011216 -0.0293567 5.97927)
(0.0116532 -0.0116587 5.99761)
(0.00551245 0.00551391 5.96325)
(0.00548023 0.0138587 5.95368)
(0.0054356 0.0155802 5.93898)
(0.00540267 0.010059 5.92595)
(0.00539276 -1.29297e-05 5.92076)
(0.00540272 -0.0100833 5.92595)
(0.00543567 -0.0155997 5.93898)
(0.00548016 -0.0138698 5.95368)
(0.0055115 -0.00551674 5.96325)
(0.00208107 0.00208233 5.94805)
(0.00241751 0.00506888 5.94202)
(0.00294637 0.00537636 5.93228)
(0.00343914 0.00324598 5.92303)
(0.00364984 -1.26179e-05 5.91908)
(0.00343921 -0.00326967 5.92304)
(0.00294649 -0.00539551 5.93228)
(0.00241755 -0.00507984 5.94203)
(0.00208032 -0.00208521 5.94805)
(-0.00051333 -0.000512284 5.9449)
(0.000482426 -0.00191032 5.93908)
(0.00206017 -0.00340896 5.92847)
(0.00357733 -0.00314081 5.91665)
(0.00426569 -1.22084e-05 5.91063)
(0.00357738 0.00311792 5.91665)
(0.00206024 0.00339053 5.92847)
(0.000482387 0.00189979 5.93909)
(-0.000514081 0.000509496 5.9449)
(-0.00373407 -0.00373324 5.95338)
(-0.00124951 -0.0113653 5.94462)
(0.00277099 -0.017054 5.92602)
(0.00691568 -0.0145921 5.90101)
(0.0090666 -1.17409e-05 5.8847)
(0.00691575 0.0145701 5.90101)
(0.00277112 0.0170362 5.92602)
(-0.00124943 0.0113549 5.94462)
(-0.00373459 0.00373042 5.95338)
(-0.00927757 -0.00927697 5.97939)
(-0.00340488 -0.0292708 5.96387)
(0.00645007 -0.047013 5.9256)
(0.0179362 -0.0444561 5.86231)
(0.0255501 -1.11744e-05 5.80488)
(0.0179363 0.0444351 5.86231)
(0.00645014 0.0469962 5.9256)
(-0.00340488 0.0292611 5.96387)
(-0.00927812 0.00927429 5.97939)
(-0.019257 -0.0192566 6.03645)
(-0.00621378 -0.0651578 6.01083)
(0.0170041 -0.118611 5.93596)
(0.0500204 -0.135307 5.77465)
(0.0822238 -1.05578e-05 5.53705)
(0.0500205 0.135287 5.77465)
(0.0170042 0.118595 5.93597)
(-0.00621365 0.0651484 6.01084)
(-0.0192573 0.0192539 6.03645)
(-0.0348942 -0.0348941 6.14474)
(-0.00894183 -0.129756 6.11259)
(0.0416001 -0.283197 5.99763)
(0.138045 -0.443368 5.64316)
(0.300292 -9.83921e-06 4.51929)
(0.138045 0.443349 5.64316)
(0.0416002 0.283182 5.99763)
(-0.0089418 0.129747 6.11259)
(-0.0348946 0.0348916 6.14475)
(-0.0514124 -0.0514125 6.31735)
(-0.009824 -0.212271 6.30076)
(0.0811717 -0.58804 6.23465)
(0.33539 -1.61365 5.9957)
(6.27178 -9.07327e-06 5.06422)
(0.33539 1.61363 5.9957)
(0.0811718 0.588026 6.23465)
(-0.00982383 0.212263 6.30076)
(-0.0514124 0.05141 6.31735)
(-0.0514871 -0.0514875 6.52314)
(-0.00989957 -0.21246 6.5394)
(0.0810947 -0.588254 6.605)
(0.335312 -1.61379 6.8435)
(6.2717 -8.20297e-06 7.7748)
(0.335312 1.61377 6.8435)
(0.0810947 0.588242 6.60501)
(-0.00989951 0.212453 6.53941)
(-0.0514872 0.0514853 6.52315)
(-0.0351526 -0.0351532 6.69642)
(-0.00920367 -0.130411 6.72809)
(0.0413328 -0.28394 6.8423)
(0.137772 -0.443852 7.19612)
(0.300018 -7.29238e-06 8.31974)
(0.137772 0.443838 7.19613)
(0.0413329 0.283929 6.84231)
(-0.00920346 0.130404 6.72809)
(-0.0351524 0.035151 6.69642)
(-0.0198163 -0.0198172 6.80635)
(-0.0067826 -0.0665752 6.83112)
(0.0164202 -0.12022 6.90468)
(0.0494233 -0.136355 7.06484)
(0.0816215 -6.28005e-06 7.30199)
(0.0494233 0.136343 7.06484)
(0.0164203 0.12021 6.90468)
(-0.0067825 0.0665695 6.83112)
(-0.0198162 0.0198153 6.80636)
(-0.0103903 -0.0103914 6.86677)
(-0.00454239 -0.0320894 6.88069)
(0.00527399 -0.0502137 6.9165)
(0.0167262 -0.0465415 6.97763)
(0.0243267 -5.23676e-06 7.03421)
(0.0167263 0.0465317 6.97764)
(0.00527415 0.0502058 6.91651)
(-0.00454214 0.0320843 6.88069)
(-0.0103899 0.0103896 6.86677)
(-0.00589644 -0.00589785 6.89934)
(-0.00347568 -0.0168407 6.90506)
(0.000446226 -0.0232722 6.91899)
(0.00450447 -0.0186444 6.9399)
(0.00662135 -4.10288e-06 6.95459)
(0.00450452 0.0186368 6.9399)
(0.000446316 0.0232662 6.91899)
(-0.00347552 0.0168367 6.90506)
(-0.00589606 0.00589641 6.89935)
(-0.00467519 -0.0046769 6.92049)
(-0.00384298 -0.0124449 6.92051)
(-0.00251649 -0.01537 6.92228)
(-0.00121911 -0.0109344 6.92633)
(-0.000617091 -2.95844e-06 6.92931)
(-0.00121903 0.0109289 6.92634)
(-0.00251632 0.0153656 6.92229)
(-0.00384267 0.0124417 6.92052)
(-0.00467454 0.00467557 6.9205)
(-0.00587044 -0.00587244 6.94159)
(-0.00595141 -0.015049 6.93671)
(-0.00606344 -0.0174519 6.9298)
(-0.00612871 -0.011619 6.92449)
(-0.00613638 -1.74241e-06 6.92272)
(-0.00612866 0.0116158 6.92449)
(-0.00606334 0.0174496 6.9298)
(-0.00595121 0.0150471 6.93672)
(-0.00586981 0.00587147 6.94159)
(-0.00955086 -0.00955313 6.97244)
(-0.0106461 -0.0242319 6.96175)
(-0.012326 -0.0275926 6.94553)
(-0.0137724 -0.0180146 6.93165)
(-0.0143316 -5.3164e-07 6.92631)
(-0.0137724 0.0180137 6.93165)
(-0.0123259 0.027592 6.94553)
(-0.0106457 0.0242308 6.96175)
(-0.00954996 0.0095523 6.97244)
(-0.0165609 -0.0165634 7.02467)
(-0.0196923 -0.041955 7.00605)
(-0.0245359 -0.0475457 6.9774)
(-0.0286829 -0.0308403 6.95284)
(-0.0302808 7.41715e-07 6.94336)
(-0.0286828 0.0308418 6.95284)
(-0.0245358 0.0475471 6.9774)
(-0.0196921 0.0419552 7.00605)
(-0.01656 0.016563 7.02468)
(-0.0281715 -0.0281743 7.11415)
(-0.0361797 -0.0715012 7.08591)
(-0.048772 -0.0808049 7.04163)
(-0.0593462 -0.0520564 7.00451)
(-0.0633545 2.00646e-06 6.99047)
(-0.0593461 0.0520602 7.00451)
(-0.0487718 0.0808081 7.04164)
(-0.0361793 0.0715021 7.08592)
(-0.0281704 0.0281739 7.11415)
(-0.0447916 -0.0447945 7.26009)
(-0.0645264 -0.114467 7.22667)
(-0.0967042 -0.12895 7.17088)
(-0.122744 -0.0819995 7.12716)
(-0.132339 3.32123e-06 7.11158)
(-0.122744 0.0820059 7.12716)
(-0.0967041 0.128956 7.17089)
(-0.064526 0.114469 7.22667)
(-0.0447904 0.0447944 7.26009)
(-0.0615894 -0.0615925 7.47286)
(-0.107636 -0.160704 7.46125)
(-0.188646 -0.180314 7.42795)
(-0.249855 -0.11136 7.41217)
(-0.271398 4.58309e-06 7.40957)
(-0.249854 0.111369 7.41217)
(-0.188645 0.180321 7.42795)
(-0.107636 0.160706 7.46125)
(-0.0615878 0.0615922 7.47287)
(-0.0564082 -0.0564113 7.70887)
(-0.15094 -0.159382 7.80392)
(-0.345082 -0.178024 7.91587)
(-0.474313 -0.10038 8.03559)
(-0.516689 5.74032e-06 8.0867)
(-0.474312 0.10039 8.03559)
(-0.345082 0.178032 7.91587)
(-0.150939 0.159385 7.80393)
(-0.0564063 0.056411 7.70888)
(0.0334588 0.0334555 7.75479)
(-0.0994009 0.0462922 8.12147)
(-0.479187 0.0513502 8.68657)
(-0.677373 0.059467 9.15513)
(-0.735794 6.69878e-06 9.33045)
(-0.677373 -0.0594546 9.15513)
(-0.479186 -0.0513407 8.68657)
(-0.0993997 -0.0462892 8.12147)
(0.0334612 -0.0334563 7.7548)
(0.310268 0.310265 7.06736)
(0.367209 0.772397 7.72245)
(0.395773 0.855636 8.81297)
(0.458052 0.543497 9.63555)
(0.48077 7.2216e-06 9.92738)
(0.458052 -0.543483 9.63555)
(0.395774 -0.855626 8.81297)
(0.367211 -0.772394 7.72245)
(0.310271 -0.310266 7.06736)
(0.688544 0.68854 5.06976)
(1.10592 1.7919 5.68268)
(2.02857 1.96445 6.69955)
(2.54914 1.17388 7.42022)
(2.70432 7.16917e-06 7.66785)
(2.54914 -1.17386 7.42022)
(2.02857 -1.96444 6.69955)
(1.10592 -1.79189 5.68268)
(0.688546 -0.688541 5.06977)
(0.92318 0.923177 1.84634)
(1.52517 2.40218 2.08098)
(2.82147 2.59318 2.45663)
(3.42626 1.5118 2.7097)
(3.58981 6.70916e-06 2.79455)
(3.42626 -1.51179 2.7097)
(2.82147 -2.59317 2.45663)
(1.52517 -2.40217 2.08098)
(0.923182 -0.923176 1.84635)
(6.39245 8.2324 2.40486)
(5.51749 5.5175 1.89457)
(4.3242 4.03714 1.48866)
(2.05957 2.34551 1.18451)
(1.48929 -1.17208e-05 1.08184)
(2.05957 -2.34553 1.18451)
(4.3242 -4.03716 1.48866)
(5.51749 -5.51751 1.89457)
(6.39245 -8.2324 2.40486)
(5.31068 7.7221 7.67583)
(4.60129 4.6013 5.47493)
(3.63517 3.32708 4.25358)
(1.71717 1.93869 3.33893)
(1.25291 -1.22051e-05 3.04791)
(1.71717 -1.93871 3.33893)
(3.63517 -3.3271 4.25358)
(4.60129 -4.60131 5.47492)
(5.31068 -7.7221 7.67582)
(2.42605 1.0315 9.38246)
(2.09525 2.09526 7.09617)
(1.62824 1.90115 5.76445)
(1.03775 1.13984 4.76059)
(0.83962 -1.25979e-05 4.43612)
(1.03775 -1.13986 4.76059)
(1.62824 -1.90117 5.76445)
(2.09525 -2.09527 7.09617)
(2.42605 -1.0315 9.38246)
(1.11992 0.43581 7.64184)
(0.983285 0.983292 6.80826)
(0.785183 0.991507 6.01864)
(0.581806 0.610356 5.40954)
(0.505354 -1.29431e-05 5.19437)
(0.581807 -0.61038 5.40954)
(0.785184 -0.991527 6.01864)
(0.983287 -0.983304 6.80826)
(1.11992 -0.435814 7.64183)
(0.526319 0.197923 6.77435)
(0.472056 0.472063 6.43245)
(0.391946 0.502427 6.02151)
(0.317092 0.315572 5.69344)
(0.287932 -1.31821e-05 5.57199)
(0.317093 -0.315597 5.69344)
(0.391948 -0.502448 6.02151)
(0.472058 -0.472075 6.43245)
(0.526319 -0.197927 6.77435)
(0.251713 0.0939105 6.34692)
(0.230447 0.230454 6.19472)
(0.198671 0.252497 5.98871)
(0.17016 0.160831 5.81905)
(0.15895 -1.33193e-05 5.75463)
(0.170161 -0.160856 5.81905)
(0.198672 -0.252518 5.98871)
(0.230449 -0.230466 6.19472)
(0.251713 -0.0939143 6.34692)
(0.122136 0.0457243 6.13593)
(0.113848 0.113854 6.06461)
(0.101365 0.126756 5.96216)
(0.0903457 0.0814861 5.87578)
(0.0860063 -1.3343e-05 5.84249)
(0.0903465 -0.0815112 5.87578)
(0.101366 -0.126777 5.96216)
(0.11385 -0.113867 6.06461)
(0.122137 -0.0457281 6.13593)
(0.0598565 0.0225921 6.03129)
(0.0566731 0.0566785 5.99678)
(0.0518534 0.0636618 5.94568)
(0.0476249 0.0411598 5.90188)
(0.0459598 -1.32794e-05 5.88484)
(0.0476257 -0.0411847 5.90188)
(0.0518548 -0.0636822 5.94568)
(0.0566746 -0.0566909 5.99678)
(0.059857 -0.0225959 6.03129)
(0.0293406 0.0112177 5.97927)
(0.0282358 0.0282406 5.96216)
(0.0265602 0.0318543 5.93637)
(0.0250952 0.0206515 5.914)
(0.0245196 -1.31163e-05 5.90523)
(0.025096 -0.0206762 5.914)
(0.0265616 -0.0318744 5.93637)
(0.0282375 -0.028253 5.96216)
(0.0293414 -0.0112215 5.97927)
(0.0138546 0.0054817 5.95368)
(0.0137776 0.0137819 5.94488)
(0.0136683 0.0155026 5.93137)
(0.013585 0.0100162 5.91943)
(0.0135587 -1.28794e-05 5.91467)
(0.0135858 -0.0100404 5.91943)
(0.0136697 -0.0155223 5.93138)
(0.0137792 -0.013794 5.94488)
(0.0138552 -0.00548539 5.95368)
(0.00506529 0.00241877 5.94202)
(0.00593051 0.00593418 5.93703)
(0.00726998 0.00639798 5.92891)
(0.00849586 0.00394945 5.92121)
(0.00901043 -1.25525e-05 5.91795)
(0.0084966 -0.00397302 5.92121)
(0.00727136 -0.00641717 5.92891)
(0.00593221 -0.00594601 5.93703)
(0.00506621 -0.00242244 5.94203)
(-0.00191328 0.000483472 5.93908)
(0.000660149 0.000663181 5.93542)
(0.00464228 -0.000314059 5.92829)
(0.00835903 -0.000935302 5.92013)
(0.00998734 -1.21568e-05 5.91604)
(0.00835974 0.000912478 5.92013)
(0.00464358 0.000295541 5.92829)
(0.000661676 -0.000674532 5.93542)
(-0.0019125 -0.000486972 5.93909)
(-0.0113676 -0.00124868 5.94462)
(-0.00486257 -0.00486019 5.94073)
(0.00521883 -0.00888885 5.93041)
(0.0150571 -0.0082965 5.91537)
(0.0198178 -1.16728e-05 5.90599)
(0.0150578 0.00827459 5.91537)
(0.00522013 0.00887106 5.93041)
(-0.00486094 0.0048492 5.94073)
(-0.0113665 0.00124525 5.94462)
(-0.0292725 -0.00340428 5.96387)
(-0.0135449 -0.0135432 5.9589)
(0.0108427 -0.0256719 5.93983)
(0.0366163 -0.025356 5.90542)
(0.0516871 -1.11238e-05 5.87804)
(0.0366169 0.0253351 5.90542)
(0.0108439 0.025655 5.93983)
(-0.0135435 0.0135328 5.95891)
(-0.0292716 0.00340106 5.96387)
(-0.0651588 -0.00621341 6.01083)
(-0.0288978 -0.0288968 6.0053)
(0.0271704 -0.0623764 5.97111)
(0.094933 -0.0700869 5.89476)
(0.149683 -1.04905e-05 5.8118)
(0.0949336 0.0700672 5.89476)
(0.0271716 0.0623605 5.97112)
(-0.0288963 0.0288869 6.0053)
(-0.0651577 0.00621029 6.01084)
(-0.129756 -0.00894169 6.11259)
(-0.053262 -0.0532617 6.10898)
(0.0639216 -0.136211 6.0618)
(0.239008 -0.184675 5.92853)
(0.47195 -9.79177e-06 5.70885)
(0.239009 0.184657 5.92853)
(0.0639227 0.136196 6.0618)
(-0.0532607 0.0532526 6.10898)
(-0.129755 0.00893886 6.11259)
(-0.21227 -0.0098241 6.30076)
(-0.0796864 -0.0796868 6.2998)
(0.11994 -0.242825 6.27414)
(0.52142 -0.423036 6.19297)
(1.65971 -9.00661e-06 6.03564)
(0.521421 0.42302 6.19297)
(0.119941 0.242812 6.27414)
(-0.0796851 0.0796783 6.2998)
(-0.212269 0.00982139 6.30076)
(-0.212459 -0.00989992 6.5394)
(-0.0798774 -0.0798785 6.54002)
(0.119745 -0.243043 6.56516)
(0.521222 -0.423178 6.64588)
(1.65951 -8.15669e-06 6.80303)
(0.521223 0.423163 6.64588)
(0.119746 0.243031 6.56517)
(-0.0798763 0.079871 6.54003)
(-0.212458 0.00989754 6.53941)
(-0.130409 -0.00920428 6.72809)
(-0.0539237 -0.0539256 6.73121)
(0.0632458 -0.136964 6.77763)
(0.23832 -0.185166 6.91023)
(0.471257 -7.22551e-06 7.12965)
(0.238321 0.185153 6.91024)
(0.0632466 0.136954 6.77763)
(-0.0539225 0.0539188 6.73121)
(-0.130408 0.00920206 6.72809)
(-0.0665726 -0.00678346 6.83112)
(-0.030336 -0.0303387 6.83578)
(0.0256941 -0.0640138 6.86862)
(0.0934231 -0.0711534 6.9438)
(0.148159 -6.23286e-06 7.02629)
(0.0934235 0.0711417 6.9438)
(0.0256948 0.0640045 6.86862)
(-0.0303351 0.030333 6.83578)
(-0.0665716 0.00678163 6.83112)
(-0.032086 -0.00454352 6.88069)
(-0.0164217 -0.0164251 6.88399)
(0.00786816 -0.0289451 6.90053)
(0.0335557 -0.0274888 6.93272)
(0.0485925 -5.16541e-06 6.95921)
(0.033556 0.0274791 6.93272)
(0.00786883 0.0289374 6.90053)
(-0.0164207 0.0164203 6.884)
(-0.0320847 0.00454189 6.88069)
(-0.0168365 -0.00347709 6.90506)
(-0.0104937 -0.010498 6.90576)
(-0.000661945 -0.0152921 6.9112)
(0.00895745 -0.0124693 6.92196)
(0.0136317 -4.04933e-06 6.92965)
(0.00895772 0.0124618 6.92196)
(-0.00066144 0.0152862 6.9112)
(-0.010493 0.0104943 6.90576)
(-0.0168354 0.00347587 6.90506)
(-0.0124398 -0.00384468 6.92052)
(-0.010281 -0.0102861 6.91804)
(-0.00693508 -0.0127461 6.91577)
(-0.00377482 -0.00903498 6.9157)
(-0.0023653 -2.88077e-06 6.91655)
(-0.00377459 0.00902966 6.9157)
(-0.00693461 0.0127419 6.91578)
(-0.0102802 0.0102834 6.91804)
(-0.0124386 0.00384369 6.92052)
(-0.0150431 -0.00595341 6.93671)
(-0.015236 -0.015242 6.92991)
(-0.0155201 -0.0176292 6.91999)
(-0.0157082 -0.011692 6.91193)
(-0.0157471 -1.68324e-06 6.909)
(-0.015708 0.0116889 6.91194)
(-0.0155198 0.017627 6.91999)
(-0.0152355 0.0152406 6.92991)
(-0.0150421 0.00595287 6.93672)
(-0.0242251 -0.0106483 6.96175)
(-0.0270002 -0.027007 6.948)
(-0.0312628 -0.030719 6.92706)
(-0.0349361 -0.0200202 6.9091)
(-0.0363577 -4.50383e-07 6.90216)
(-0.034936 0.0200195 6.9091)
(-0.0312625 0.0307186 6.92706)
(-0.0269997 0.0270066 6.94801)
(-0.0242239 0.010648 6.96175)
(-0.0419475 -0.0196949 7.00605)
(-0.0499223 -0.0499299 6.98051)
(-0.0622758 -0.0565363 6.94095)
(-0.072843 -0.0365853 6.90726)
(-0.0769119 8.03618e-07 6.89434)
(-0.0728429 0.0365869 6.90726)
(-0.0622758 0.0565379 6.94096)
(-0.0499221 0.0499309 6.98052)
(-0.0419466 0.019695 7.00606)
(-0.0714931 -0.0361824 7.08591)
(-0.0920934 -0.0921017 7.04108)
(-0.124636 -0.103971 6.96947)
(-0.151868 -0.0666389 6.91045)
(-0.162167 2.09165e-06 6.88842)
(-0.151868 0.0666429 6.91045)
(-0.124636 0.103975 6.96947)
(-0.0920932 0.0921036 7.04109)
(-0.0714919 0.0361828 7.08592)
(-0.114458 -0.0645293 7.22667)
(-0.16637 -0.166379 7.15521)
(-0.252239 -0.187168 7.03101)
(-0.32096 -0.117634 6.93665)
(-0.346129 3.41186e-06 6.90354)
(-0.32096 0.117641 6.93665)
(-0.252239 0.187173 7.03101)
(-0.16637 0.166382 7.15522)
(-0.114457 0.06453 7.22667)
(-0.160695 -0.107639 7.46125)
(-0.287751 -0.28776 7.37483)
(-0.521238 -0.322532 7.17957)
(-0.691879 -0.194113 7.0606)
(-0.751047 4.74301e-06 7.02522)
(-0.691878 0.194122 7.06061)
(-0.521238 0.322539 7.17957)
(-0.28775 0.287764 7.37484)
(-0.160693 0.10764 7.46125)
(-0.159372 -0.150943 7.80392)
(-0.448046 -0.448056 7.81216)
(-1.12249 -0.501397 7.62533)
(-1.53118 -0.271987 7.60807)
(-1.661 5.98185e-06 7.6223)
(-1.53118 0.271998 7.60807)
(-1.12249 0.501406 7.62533)
(-0.448045 0.44806 7.81216)
(-0.15937 0.150944 7.80393)
(0.0463016 -0.0994042 8.12147)
(-0.466343 -0.466353 8.63962)
(-2.62822 -0.526622 9.42743)
(-3.51037 -0.19714 10.0875)
(-3.75989 6.9803e-06 10.3279)
(-3.51037 0.197153 10.0875)
(-2.62822 0.526633 9.42743)
(-0.466341 0.466358 8.63962)
(0.0463046 0.0994046 8.12147)
(0.772407 0.367206 7.72245)
(0.857913 0.857901 8.92776)
(0.395773 0.946478 11.3207)
(0.458052 0.628495 12.8621)
(0.48077 7.37202e-06 13.3675)
(0.458052 -0.62848 12.8621)
(0.395774 -0.946467 11.3207)
(0.857915 -0.857897 8.92776)
(0.772409 -0.367206 7.72245)
(1.79191 1.10591 5.68268)
(3.13193 3.13192 6.84064)
(7.32767 3.40768 9.12524)
(9.22679 1.84963 10.3884)
(9.76134 6.82929e-06 10.7769)
(9.22679 -1.84961 10.3884)
(7.32767 -3.40767 9.12524)
(3.13193 -3.13191 6.84064)
(1.79191 -1.10591 5.68268)
(2.40219 1.52517 2.08098)
(4.30048 4.30047 2.50024)
(9.94881 4.49427 3.24953)
(11.5971 2.28015 3.58683)
(11.982 5.48423e-06 3.68005)
(11.5971 -2.28013 3.58682)
(9.9488 -4.49425 3.24953)
(4.30047 -4.30046 2.50024)
(2.40219 -1.52517 2.08098)
(6.22676 7.63991 1.88851)
(4.03713 4.3242 1.48866)
(2.76884 2.76885 1.19948)
(1.72445 1.4584 1.01986)
(1.38229 -1.12804e-05 0.959798)
(1.72445 -1.45843 1.01986)
(2.76884 -2.76887 1.19948)
(4.03713 -4.32421 1.48866)
(6.22676 -7.63991 1.8885)
(5.18416 7.24006 6.07524)
(3.32707 3.63517 4.25358)
(2.30004 2.30005 3.37928)
(1.4526 1.21873 2.88258)
(1.17647 -1.16731e-05 2.72099)
(1.4526 -1.21875 2.88258)
(2.30004 -2.30007 3.37928)
(3.32708 -3.63518 4.25358)
(5.18417 -7.24007 6.07523)
(2.45534 0.818252 7.65385)
(1.90114 1.62825 5.76445)
(1.39784 1.39785 4.80387)
(0.982363 0.800118 4.23958)
(0.834607 -1.20005e-05 4.05285)
(0.982364 -0.800141 4.23958)
(1.39784 -1.39787 4.80387)
(1.90114 -1.62826 5.76445)
(2.45535 -0.818255 7.65385)
(1.17664 0.350661 6.67219)
(0.991497 0.78519 6.01864)
(0.775162 0.775172 5.43589)
(0.594795 0.467702 5.03477)
(0.527477 -1.22924e-05 4.89368)
(0.594797 -0.467725 5.03477)
(0.775165 -0.775191 5.43589)
(0.991501 -0.785202 6.01864)
(1.17665 -0.350665 6.67219)
(0.568936 0.164707 6.29117)
(0.502418 0.391953 6.02151)
(0.413972 0.413982 5.70466)
(0.339306 0.257909 5.46346)
(0.310748 -1.24963e-05 5.37482)
(0.339308 -0.257932 5.46346)
(0.413975 -0.414001 5.70466)
(0.502422 -0.391965 6.02151)
(0.568941 -0.164711 6.29117)
(0.277394 0.0810018 6.11271)
(0.252488 0.198677 5.98871)
(0.217106 0.217115 5.82213)
(0.186898 0.137862 5.6875)
(0.175196 -1.26105e-05 5.63663)
(0.186899 -0.137886 5.6875)
(0.217109 -0.217135 5.82213)
(0.252492 -0.198689 5.98871)
(0.277398 -0.0810057 6.11271)
(0.136263 0.040711 6.02249)
(0.126748 0.10137 5.96216)
(0.11276 0.112769 5.87567)
(0.100712 0.0724135 5.80328)
(0.0960119 -1.26264e-05 5.77545)
(0.100713 -0.0724373 5.80328)
(0.112763 -0.112788 5.87567)
(0.126752 -0.101383 5.96216)
(0.136268 -0.0407149 6.02249)
(0.0672791 0.0206689 5.97584)
(0.0636541 0.0518587 5.94568)
(0.0582307 0.0582385 5.90103)
(0.05353 0.0376404 5.86287)
(0.0516895 -1.25596e-05 5.84805)
(0.0535318 -0.0376641 5.86287)
(0.058234 -0.0582578 5.90103)
(0.0636585 -0.0518709 5.94568)
(0.0672836 -0.0206728 5.97584)
(0.0330995 0.0105509 5.9516)
(0.0318474 0.0265649 5.93637)
(0.0299587 0.0299657 5.91342)
(0.0283173 0.0194267 5.89352)
(0.0276745 -1.24061e-05 5.88573)
(0.0283191 -0.01945 5.89352)
(0.029962 -0.0299848 5.91342)
(0.0318518 -0.0265769 5.93637)
(0.0331041 -0.0105548 5.9516)
(0.0155743 0.00543697 5.93898)
(0.0154965 0.0136725 5.93137)
(0.0153815 0.0153876 5.91969)
(0.0152896 0.00994942 5.90935)
(0.0152589 -1.21797e-05 5.90525)
(0.0152914 -0.00997232 5.90935)
(0.0153847 -0.0154063 5.91969)
(0.0155008 -0.0136842 5.93138)
(0.0155787 -0.00544072 5.93898)
(0.00537137 0.00294754 5.93228)
(0.00639284 0.00727356 5.92891)
(0.00793653 0.0079417 5.92325)
(0.00931161 0.00498643 5.91781)
(0.00987445 -1.18744e-05 5.91551)
(0.0093133 -0.00500874 5.91781)
(0.0079397 -0.0079599 5.92326)
(0.00639704 -0.00728499 5.92891)
(0.00537581 -0.00295121 5.93228)
(-0.00341302 0.00206114 5.92847)
(-0.000318246 0.00464524 5.92829)
(0.00428571 0.00428992 5.92641)
(0.00839451 0.00220425 5.92321)
(0.0101118 -1.14985e-05 5.92143)
(0.00839615 -0.00222585 5.92322)
(0.00428877 -0.00430753 5.92642)
(-0.000314234 -0.00465628 5.92829)
(-0.00340885 -0.00206468 5.92847)
(-0.0170571 0.00277176 5.92602)
(-0.00889206 0.00522115 5.93041)
(0.00286246 0.00286568 5.93222)
(0.0134155 6.83143e-06 5.92927)
(0.0180508 -1.10467e-05 5.9264)
(0.013417 -2.75681e-05 5.92927)
(0.00286536 -0.00288255 5.93222)
(-0.00888818 -0.00523173 5.93041)
(-0.017053 -0.00277516 5.92602)
(-0.0470151 0.00645062 5.9256)
(-0.0256741 0.0108444 5.93983)
(0.00314596 0.00314818 5.94755)
(0.0292418 -0.00361167 5.94219)
(0.0418395 -1.05272e-05 5.93475)
(0.0292433 0.00359192 5.94219)
(0.00314872 -0.00316423 5.94755)
(-0.0256705 -0.0108544 5.93984)
(-0.0470113 -0.00645384 5.9256)
(-0.118612 0.0170044 5.93597)
(-0.0623776 0.0271714 5.97112)
(0.00521911 0.00522031 5.98904)
(0.0671003 -0.0127945 5.97704)
(0.102368 -9.93432e-06 5.95732)
(0.0671017 0.0127759 5.97704)
(0.00522168 -0.00523541 5.98905)
(-0.0623741 -0.0271809 5.97112)
(-0.118608 -0.0170075 5.93597)
(-0.283197 0.0416003 5.99763)
(-0.136211 0.0639219 6.0618)
(0.00907306 0.00907322 6.0904)
(0.143781 -0.0353392 6.06965)
(0.244002 -9.27097e-06 6.02931)
(0.143783 0.0353219 6.06965)
(0.00907545 -0.00908729 6.0904)
(-0.136208 -0.0639307 6.0618)
(-0.283194 -0.0416031 5.99764)
(-0.588039 0.0811716 6.23465)
(-0.242824 0.11994 6.27414)
(0.013068 0.0130671 6.29047)
(0.253253 -0.0738811 6.27791)
(0.512162 -8.53343e-06 6.25178)
(0.253254 0.0738652 6.27791)
(0.0130701 -0.01308 6.29047)
(-0.242821 -0.119948 6.27414)
(-0.588035 -0.0811742 6.23465)
(-0.588253 0.0810943 6.605)
(-0.243041 0.119744 6.56516)
(0.0128472 0.0128453 6.54831)
(0.253028 -0.0740255 6.5604)
(0.511936 -7.72597e-06 6.58635)
(0.253029 0.0740111 6.5604)
(0.0128492 -0.0128569 6.54831)
(-0.243038 -0.119752 6.56517)
(-0.58825 -0.0810967 6.60501)
(-0.283937 0.0413322 6.8423)
(-0.136961 0.063244 6.77763)
(0.00830642 0.00830334 6.74825)
(0.143 -0.0358406 6.76832)
(0.243215 -6.84774e-06 6.80839)
(0.143001 0.0358278 6.76833)
(0.00830814 -0.00831361 6.74826)
(-0.136959 -0.0632504 6.77763)
(-0.283935 -0.0413343 6.84231)
(-0.120216 0.0164194 6.90468)
(-0.0640096 0.0256915 6.86862)
(0.0035437 0.00353947 6.8493)
(0.0653867 -0.0138895 6.86008)
(0.100639 -5.90091e-06 6.87932)
(0.0653875 0.0138784 6.86008)
(0.00354519 -0.00354828 6.8493)
(-0.0640076 -0.025697 6.86862)
(-0.120213 -0.0164211 6.90468)
(-0.0502085 0.00527293 6.9165)
(-0.0289397 0.00786479 6.90053)
(-0.000230908 -0.000236343 6.89015)
(0.0257671 -0.00581716 6.89317)
(0.0383259 -4.89106e-06 6.89968)
(0.0257677 0.00580805 6.89317)
(-0.000229698 0.00022911 6.89015)
(-0.028938 -0.0078693 6.90053)
(-0.0502065 -0.00527443 6.91651)
(-0.0232657 0.000444905 6.91899)
(-0.0152854 -0.000666133 6.9112)
(-0.00381436 -0.00382105 6.90418)
(0.00648996 -0.00435076 6.90257)
(0.0110271 -3.8268e-06 6.90364)
(0.00649048 0.00434365 6.90257)
(-0.00381341 0.00381546 6.90419)
(-0.0152842 0.000662713 6.9112)
(-0.0232643 -0.000446019 6.91899)
(-0.0153622 -0.00251807 6.92228)
(-0.0127381 -0.00694011 6.91577)
(-0.00885578 -0.00886378 6.90742)
(-0.00537834 -0.0063646 6.90167)
(-0.00390956 -2.72136e-06 6.89993)
(-0.00537799 0.00635958 6.90167)
(-0.00885513 0.00885991 6.90743)
(-0.0127372 0.00693773 6.91578)
(-0.015361 0.00251726 6.92229)
(-0.017443 -0.00606529 6.9298)
(-0.01762 -0.015526 6.91999)
(-0.0179149 -0.0179242 6.90547)
(-0.0181419 -0.011846 6.89333)
(-0.0182067 -1.58109e-06 6.88873)
(-0.0181417 0.0118431 6.89333)
(-0.0179145 0.0179221 6.90548)
(-0.0176195 0.0155248 6.92)
(-0.0174423 0.00606489 6.92981)
(-0.0275824 -0.0123281 6.94553)
(-0.0307085 -0.0312695 6.92706)
(-0.035518 -0.0355286 6.89877)
(-0.0396721 -0.0231096 6.87452)
(-0.041283 -4.19256e-07 6.86514)
(-0.039672 0.0231089 6.87452)
(-0.0355179 0.0355283 6.89878)
(-0.0307084 0.0312693 6.92706)
(-0.0275821 0.012328 6.94554)
(-0.0475344 -0.0245382 6.9774)
(-0.0565246 -0.0622833 6.94096)
(-0.0704547 -0.0704664 6.88403)
(-0.0823826 -0.0454764 6.8359)
(-0.0869791 7.72057e-07 6.81755)
(-0.0823827 0.045478 6.83591)
(-0.0704549 0.0704679 6.88403)
(-0.056525 0.0622844 6.94096)
(-0.0475346 0.0245385 6.97741)
(-0.0807927 -0.0487746 7.04164)
(-0.103959 -0.124644 6.96947)
(-0.140567 -0.140579 6.85167)
(-0.171253 -0.0895879 6.75639)
(-0.182873 2.00015e-06 6.72126)
(-0.171254 0.0895917 6.7564)
(-0.140567 0.140583 6.85168)
(-0.10396 0.124646 6.96947)
(-0.0807931 0.0487752 7.04164)
(-0.128937 -0.096707 7.17088)
(-0.187154 -0.252248 7.03101)
(-0.283527 -0.28354 6.77428)
(-0.360901 -0.175889 6.58715)
(-0.389297 3.31228e-06 6.5227)
(-0.360902 0.175895 6.58715)
(-0.283527 0.283545 6.77429)
(-0.187155 0.252251 7.03102)
(-0.128938 0.0967079 7.17089)
(-0.180301 -0.188648 7.42795)
(-0.322518 -0.521247 7.17957)
(-0.584428 -0.584442 6.5577)
(-0.776985 -0.341169 6.20195)
(-0.84399 4.69982e-06 6.09469)
(-0.776985 0.341177 6.20195)
(-0.584428 0.584449 6.55771)
(-0.322519 0.521251 7.17958)
(-0.180301 0.188649 7.42795)
(-0.17801 -0.345085 7.91587)
(-0.501383 -1.1225 7.62533)
(-1.26115 -1.26116 5.80889)
(-1.72706 -0.638898 5.2171)
(-1.87604 6.04952e-06 5.07786)
(-1.72706 0.638909 5.2171)
(-1.26115 1.26117 5.8089)
(-0.501383 1.1225 7.62534)
(-0.178011 0.345086 7.91588)
(0.051364 -0.479189 8.68657)
(-0.526608 -2.62823 9.42743)
(-2.99266 -2.99267 2.61079)
(-4.03013 -1.0722 2.25091)
(-4.32783 7.04033e-06 2.17749)
(-4.03013 1.07222 2.25091)
(-2.99266 2.99268 2.61079)
(-0.526608 2.62823 9.42743)
(0.0513636 0.47919 8.68657)
(0.85565 0.395771 8.81297)
(0.946494 0.395771 11.3207)
(0.946493 -0.395772 11.3207)
(0.855648 -0.395772 8.81297)
(1.96447 2.02856 6.69955)
(3.40769 7.32766 9.12524)
(8.05933 8.05932 5.07777)
(10.1881 3.60755 5.08006)
(10.7935 5.57972e-06 5.01524)
(10.1881 -3.60754 5.08006)
(8.05933 -8.05931 5.07776)
(3.40769 -7.32766 9.12523)
(1.96446 -2.02856 6.69954)
(2.59319 2.82147 2.45663)
(4.49428 9.9488 3.24953)
(9.88986 9.88985 18.8852)
(11.4757 3.54502 17.0062)
(11.8514 2.55624e-06 16.5285)
(11.4757 -3.54501 17.0062)
(9.88985 -9.88984 18.8852)
(4.49427 -9.94879 3.24953)
(2.59318 -2.82146 2.45663)
(0.881207 0.881204 25.8524)
(0.989065 1.25084 23.3747)
(1.03042 -1.0648e-06 22.7353)
(0.989063 -1.25084 23.3747)
(0.881204 -0.881202 25.8524)
(0.284797 0.284795 23.5204)
(0.306909 0.427931 22.7319)
(0.317001 -2.16409e-06 22.4134)
(0.306909 -0.427934 22.7319)
(0.284795 -0.284795 23.5204)
(0.0927246 0.0927236 22.7653)
(0.0973599 0.143883 22.5109)
(0.0997161 -1.94667e-06 22.3853)
(0.0973598 -0.143886 22.5109)
(0.0927242 -0.0927248 22.7653)
(0.0303043 0.0303037 22.5193)
(0.0312914 0.0478874 22.4365)
(0.0318286 -1.04571e-06 22.3912)
(0.0312914 -0.0478895 22.4365)
(0.0303042 -0.0303047 22.5193)
(0.00992136 0.00992105 22.4388)
(0.0101339 0.0158399 22.4118)
(0.0102549 -7.02889e-07 22.3962)
(0.0101341 -0.0158415 22.4118)
(0.00992171 -0.00992193 22.4388)
(0.00325016 0.00325 22.4125)
(0.00329638 0.00521947 22.4036)
(0.00332334 -5.52406e-08 22.3984)
(0.00329643 -0.00521995 22.4036)
(0.0032504 -0.00325043 22.4125)
(0.00106465 0.00106458 22.4039)
(0.00107483 0.00171545 22.401)
(0.00108095 -5.3971e-08 22.3992)
(0.00107504 -0.00171592 22.401)
(0.00106516 -0.00106499 22.4039)
(0.000348512 0.000348481 22.401)
(0.00035086 0.000562887 22.4001)
(0.000352177 3.20718e-07 22.3995)
(0.0003509 -0.000562653 22.4001)
(0.000348772 -0.000348567 22.401)
(0.000113826 0.000113814 22.4001)
(0.000114422 0.000184138 22.3998)
(0.000114836 8.89954e-08 22.3996)
(0.000114601 -0.000184275 22.3998)
(0.000114266 -0.00011404 22.4001)
(3.68796e-05 3.68757e-05 22.3998)
(3.70333e-05 5.98934e-05 22.3997)
(3.70852e-05 2.23577e-07 22.3996)
(3.70497e-05 -5.97129e-05 22.3997)
(3.69783e-05 -3.69188e-05 22.3998)
(1.15128e-05 1.15121e-05 22.3997)
(1.15147e-05 1.86344e-05 22.3997)
(1.15781e-05 -1.72317e-07 22.3997)
(1.16e-05 -1.89942e-05 22.3997)
(1.17406e-05 -1.16996e-05 22.3997)
(2.72482e-06 2.72502e-06 22.3997)
(2.67277e-06 4.37109e-06 22.3997)
(2.64487e-06 3.01434e-08 22.3997)