/*--------------------------------*- C++ -*----------------------------------*\
  =========                 |
  \\      /  F ield         | OpenFOAM: The Open Source CFD Toolbox
   \\    /   O peration     | Website:  https://openfoam.org
    \\  /    A nd           | Version:  6
     \\/     M anipulation  |
\*---------------------------------------------------------------------------*/
FoamFile
{
    version     2.0;
    format      ascii;
    class       surfaceScalarField;
    location    "0";
    object      phi;
}
// * * * * * * * * * * * * * * * * * * * * * * * * * * * * * * * * * * * * * //

dimensions      [0 3 -1 0 0 0 0];

internalField   nonuniform List<scalar> 
69304
(
0.00211095
0.000778103
0.00211095
-0.00179426
0.00159085
0.000655146
0.00204827
-0.00153309
0.00168525
0.000511902
0.00183594
-0.00222644
0.0012102
0.000379293
0.000636954
-0.000543037
1.26452e-10
0.000310342
0.000232694
0.000543037
-0.0012102
0.000333449
0.000333711
0.00222644
-0.00168525
0.000443196
0.00151561
0.00153309
-0.00159085
0.000582265
0.0019755
0.00179426
-0.00211095
0.000726452
0.00209023
-0.00165951
0.00192293
0.00281365
0.00192293
-0.00136033
-0.00156014
0.00136468
0.00218587
0.00186992
-0.00106175
-0.00131743
0.00146773
0.00172456
0.00168688
-0.000761462
-0.00201107
0.00106061
0.00114708
0.000564847
-0.000607651
-0.000469864
1.47665e-10
0.000875495
0.000202021
-0.000657717
0.000469865
-0.00106061
0.000957992
0.000290467
-0.000912937
0.00201107
-0.00146773
0.00147159
0.00139801
-0.00120704
0.00131743
-0.00136468
0.00194631
0.00180798
-0.00152314
0.00156014
-0.00192293
0.00248051
0.00190542
-0.00463404
0.000685198
0.00326364
0.000685198
-0.00327993
-0.000815981
0.000824653
0.00261838
0.000652877
-0.00270544
-0.000821668
0.000840253
0.00212705
0.000559798
-0.00150252
-0.000858148
0.000570712
0.00152175
0.000268202
-0.00109182
-0.000277477
1.4668e-10
0.00123595
0.000133344
-0.00120171
0.000277477
-0.000570712
0.00132335
0.000171598
-0.00233093
0.000858148
-0.000840252
0.00185908
0.000453959
-0.00297945
0.000821669
-0.000824653
0.00236441
0.000618032
-0.00372944
0.000815981
-0.000685198
0.00292428
0.000674373
-0.00257197
0.000195607
0.00218076
0.000195607
-0.0022342
-0.000322538
0.000386118
0.0019896
0.000181027
-0.00187076
-0.000405433
0.000391296
0.00173629
0.000148611
-0.00151082
-0.00034187
0.000248577
0.0015034
0.000100716
-0.00132653
-0.00012952
1.46102e-10
0.00138316
7.28926e-05
-0.00138709
0.000129521
-0.000248576
0.00142391
8.22422e-05
-0.00168978
0.00034187
-0.000391296
0.00161356
0.00012564
-0.00204964
0.000405434
-0.000386117
0.00186325
0.000167077
-0.00242174
0.000322538
-0.000195607
0.00210419
0.000190621
-0.00194268
7.57976e-05
0.00179108
7.57976e-05
-0.00182798
-0.00013649
0.000175083
0.00171936
7.00336e-05
-0.00165554
-0.00019071
0.000184799
0.00160282
5.86322e-05
-0.00149919
-0.000159134
0.000116306
0.00149623
4.57909e-05
-0.00141889
-6.12523e-05
1.45074e-10
0.00144163
3.85095e-05
-0.00144641
6.12526e-05
-0.000116305
0.00146042
4.10473e-05
-0.00157176
0.000159134
-0.000184798
0.00154542
5.20042e-05
-0.0017433
0.000190711
-0.000175082
0.00166284
6.48331e-05
-0.00189944
0.00013649
-7.57974e-05
0.00176494
7.38044e-05
-0.00169178
3.31371e-05
0.0016255
3.31371e-05
-0.0016456
-6.12494e-05
8.07304e-05
0.00159516
3.09587e-05
-0.00156684
-8.97638e-05
8.80067e-05
0.00154178
2.68232e-05
-0.0014937
-7.61861e-05
5.59043e-05
0.00149142
2.256e-05
-0.00145617
-2.9537e-05
1.43121e-10
0.00146547
2.0237e-05
-0.0014691
2.95372e-05
-5.5904e-05
0.00147442
2.1047e-05
-0.00152745
7.61864e-05
-8.80065e-05
0.00151469
2.45737e-05
-0.00160777
8.97641e-05
-8.07302e-05
0.0015697
2.9035e-05
-0.00167526
6.12497e-05
-3.31369e-05
0.00161477
3.23806e-05
-0.0015807
1.52908e-05
0.00155012
1.52908e-05
-0.00156047
-2.8526e-05
3.8034e-05
0.00153649
1.44717e-05
-0.00152414
-4.27502e-05
4.22749e-05
0.00151168
1.29354e-05
-0.00148941
-3.6821e-05
2.71317e-05
0.0014877
1.13938e-05
-0.00147141
-1.4371e-05
1.39876e-10
0.00147522
1.05695e-05
-0.00147763
1.43712e-05
-2.71314e-05
0.00147953
1.08561e-05
-0.0015055
3.68212e-05
-4.22746e-05
0.00149883
1.21163e-05
-0.00154323
4.27505e-05
-3.80338e-05
0.00152476
1.3753e-05
-0.00157359
2.85263e-05
-1.52907e-05
0.00154534
1.5006e-05
-0.00152908
7.29232e-06
0.00151449
7.29231e-06
-0.00151984
-1.36574e-05
1.83077e-05
0.00150822
6.9701e-06
-0.00150286
-2.06959e-05
2.05735e-05
0.00149662
6.36697e-06
-0.00148632
-1.79963e-05
1.33024e-05
0.00148525
5.76573e-06
-0.00147766
-7.0594e-06
1.35007e-10
0.00147928
5.44622e-06
-0.00148066
7.0596e-06
-1.33022e-05
0.00148134
5.55716e-06
-0.00149401
1.79965e-05
-2.05733e-05
0.00149054
6.0469e-06
-0.00151184
2.06961e-05
-1.83075e-05
0.00150276
6.68758e-06
-0.00152585
1.36577e-05
-7.29218e-06
0.0015123
7.1803e-06
-0.00150428
3.62879e-06
0.00149703
3.62878e-06
-0.00150005
-6.81089e-06
9.15935e-06
0.00149424
3.46432e-06
-0.0014922
-1.03925e-05
1.03694e-05
0.00148906
3.15594e-06
-0.00148447
-9.10021e-06
6.74398e-06
0.00148398
2.84818e-06
-0.00148041
-3.58466e-06
1.28462e-10
0.00148131
2.68462e-06
-0.00148181
3.58483e-06
-6.74373e-06
0.00148223
2.74141e-06
-0.00148807
9.10039e-06
-1.03692e-05
0.00148635
2.99212e-06
-0.00149636
1.03927e-05
-9.15916e-06
0.0014918
3.31994e-06
-0.00150281
6.81116e-06
-3.62866e-06
0.00149605
3.57165e-06
-0.00149171
2.05831e-06
0.0014876
2.05829e-06
-0.00149
-3.87631e-06
5.24022e-06
0.00148675
1.88097e-06
-0.00148684
-5.98361e-06
6.0109e-06
0.00148527
1.54711e-06
-0.00148378
-5.30866e-06
3.95459e-06
0.00148392
1.21199e-06
-0.00148219
-2.10907e-06
1.20724e-10
0.00148326
1.033e-06
-0.00148274
2.10921e-06
-3.95436e-06
0.00148349
1.09522e-06
-0.0014852
5.30882e-06
-6.01068e-06
0.00148453
1.36898e-06
-0.00148851
5.9838e-06
-5.24005e-06
0.00148604
1.72489e-06
-0.00149111
3.87656e-06
-2.05819e-06
0.0014873
1.99675e-06
-0.00148407
1.74112e-06
0.00148059
1.74111e-06
-0.00148404
-3.31343e-06
4.55145e-06
0.00148143
1.37113e-06
-0.00148415
-5.29979e-06
5.43584e-06
0.00148334
6.7058e-07
-0.00148451
-4.89568e-06
3.70581e-06
0.00148574
-3.96329e-08
-0.00148481
-1.99725e-06
1.12839e-10
0.00148723
-4.22757e-07
-0.00148469
1.99736e-06
-3.70559e-06
0.00148669
-2.89226e-07
-0.00148431
4.89581e-06
-5.43564e-06
0.00148455
2.94116e-07
-0.00148406
5.29995e-06
-4.5513e-06
0.00148227
1.04433e-06
-0.00148405
3.31365e-06
-1.74102e-06
0.00148087
1.61281e-06
-0.00147656
2.65828e-06
0.00147124
2.65827e-06
-0.00147848
-5.15225e-06
7.27439e-06
0.00147462
1.73036e-06
-0.00148274
-8.75545e-06
9.29709e-06
0.00148224
-4.49707e-08
-0.00148796
-8.64911e-06
6.72263e-06
0.00149177
-1.88323e-06
-0.00149118
-3.68709e-06
1.06003e-10
0.00149776
-2.89819e-06
-0.00149002
3.68718e-06
-6.72243e-06
0.0014956
-2.54221e-06
-0.00148539
8.64922e-06
-9.29691e-06
0.00148705
-1.01338e-06
-0.00148036
8.75559e-06
-7.27426e-06
0.00147797
9.05773e-07
-0.0014772
5.15244e-06
-2.65819e-06
0.00147236
2.33702e-06
-0.00146367
5.58018e-06
0.00145251
5.58017e-06
-0.00146911
-1.10502e-05
1.61109e-05
0.00146083
3.21993e-06
-0.00148173
-2.01584e-05
2.23099e-05
0.00148097
-1.39641e-06
-0.00149817
-2.16021e-05
1.7377e-05
0.00150881
-6.4204e-06
-0.0015089
-9.76149e-06
1.0057e-10
0.00152803
-9.36627e-06
-0.00150499
9.76157e-06
-1.73768e-05
0.00152092
-8.31485e-06
-0.00148993
2.16022e-05
-2.23097e-05
0.00149464
-4.00255e-06
-0.00147459
2.01586e-05
-1.61108e-05
0.00146945
1.09639e-06
-0.00146547
1.10504e-05
-5.58011e-06
0.00145523
4.76572e-06
-0.00143591
1.22593e-05
0.00141139
1.22593e-05
-0.00144816
-2.49424e-05
3.78868e-05
0.00142877
6.44758e-06
-0.00147952
-4.98875e-05
5.84853e-05
0.00147638
-5.45166e-06
-0.00152642
-6.01612e-05
5.12762e-05
0.00155529
-1.99878e-05
-0.00156149
-3.01538e-05
9.50222e-11
0.0016216
-2.99559e-05
-0.00154821
3.01539e-05
-5.1276e-05
0.00159555
-2.62164e-05
-0.00150203
6.01613e-05
-5.84851e-05
0.00151306
-1.27078e-05
-0.00146132
4.98875e-05
-3.78867e-05
0.00144823
1.08834e-06
-0.00143987
2.49425e-05
-1.22593e-05
0.00141692
1.02662e-05
-0.00137582
2.51318e-05
0.00132555
2.51318e-05
-0.00139934
-5.29778e-05
8.50189e-05
0.00135547
1.18324e-05
-0.00146929
-0.000120308
0.000154087
0.00145343
-1.7916e-05
-0.0016018
-0.000175981
0.000168613
0.00167365
-6.4485e-05
-0.00173388
-0.000111207
7.28114e-11
0.00195619
-0.000111109
-0.00167888
0.000111208
-0.000168613
0.00182747
-9.11872e-05
-0.00152821
0.000175982
-0.000154087
0.00154548
-3.91648e-05
-0.00142702
0.000120308
-8.50189e-05
0.00139273
-1.00005e-06
-0.00138316
5.29779e-05
-2.51318e-05
0.0013347
2.06187e-05
-0.001257
4.46857e-05
0.00116763
4.46857e-05
-0.00129186
-9.81958e-05
0.000168481
0.00120332
1.82509e-05
-0.00141908
-0.000262029
0.000382296
0.00134905
-5.02276e-05
-0.0017737
-0.000522612
0.000640503
0.00187409
-0.000218279
-0.00243599
-0.000584146
-1.41743e-11
0.00360423
-0.000584097
-0.00209177
0.000584146
-0.000640503
0.00253074
-0.000382609
-0.00155524
0.000522612
-0.000382296
0.0015292
-0.000114275
-0.00133806
0.000262029
-0.000168481
0.00125364
-9.1326e-06
-0.00126741
9.81958e-05
-4.46857e-05
0.00117805
3.58508e-05
-0.00105742
6.36185e-05
0.00093018
6.36185e-05
-0.00108709
-0.000144631
0.000262722
0.000946301
2.27015e-05
-0.00121981
-0.000446229
0.000748911
0.00101874
-0.000101612
-0.00183722
-0.00129845
0.00246559
0.00130423
-0.000634151
-0.00691947
-0.00557145
-7.17125e-11
0.00175691
-0.00557143
-0.00300566
0.00557145
-0.00246559
0.00162471
-0.00172491
-0.00140627
0.00129845
-0.000748911
0.0011153
-0.00025856
-0.00113101
0.000446229
-0.000262722
0.000970381
-2.28739e-05
-0.00106593
0.000144631
-6.36186e-05
0.000934777
5.01402e-05
-0.000793751
6.77369e-05
0.000658277
6.77369e-05
-0.000792036
-0.000154918
0.000284074
0.000639335
2.35453e-05
-0.000783315
-0.000488595
0.00083161
0.000553855
-0.000113555
-0.000734799
-0.00145272
0.0026921
0.000204839
-0.000709423
-0.000372555
-0.00543538
-5.13046e-11
-0.000803219
-0.00543537
-0.000640825
0.00543538
-0.0026921
-0.000239742
-0.00186271
-0.000769458
0.00145272
-0.00083161
0.000438423
-0.000290072
-0.000789308
0.000488595
-0.000284074
0.000610998
-2.6211e-05
-0.000793273
0.000154918
-6.7737e-05
0.000652877
5.32145e-05
-0.000533603
5.33831e-05
0.000426837
5.33831e-05
-0.000502503
-0.00011923
0.0002102
0.000391047
2.04862e-05
-0.000366242
-0.000340728
0.000530129
0.000248043
-7.12015e-05
0.000234456
-0.000804484
0.00117684
-0.000246043
-0.000360765
0.00471238
-0.00146466
-1.2218e-11
-0.00178307
-0.00146466
0.00130514
0.00146466
-0.00117684
-0.000840378
-0.000752583
-0.000180193
0.000804484
-0.000530129
7.56237e-05
-0.000169786
-0.000456965
0.000340728
-0.0002102
0.000341192
-1.47555e-05
-0.000524649
0.00011923
-5.33832e-05
0.000416339
4.24626e-05
-0.000341065
3.26457e-05
0.000275774
3.26457e-05
-0.000306926
-7.00381e-05
0.000115591
0.000246879
1.44936e-05
-0.00018464
-0.000170048
0.000229429
0.000153749
-2.84899e-05
0.000145658
-0.0002808
0.000294397
-5.06868e-05
-0.000108568
0.000739143
-0.000216581
1.07797e-11
-0.000305974
-0.000216588
0.000433761
0.000216581
-0.000294397
-0.000190571
-0.000165374
-5.63603e-05
0.000280799
-0.000229429
6.76112e-05
-6.26209e-05
-0.000262171
0.000170048
-0.000115591
0.000211233
-3.51736e-06
-0.000330825
7.0038e-05
-3.26457e-05
0.00026691
2.65234e-05
-0.000228212
1.67232e-05
0.000194765
1.67232e-05
-0.000205676
-3.45299e-05
5.36522e-05
0.00017818
8.37392e-06
-0.00013956
-7.27399e-05
8.83079e-05
0.000133279
-9.28703e-06
-1.66085e-05
-9.45347e-05
8.40755e-05
5.99582e-05
-3.28905e-05
0.000103607
-5.13995e-05
-4.2022e-12
-7.88898e-07
-5.14182e-05
5.38286e-05
5.13995e-05
-8.40755e-05
2.29847e-05
-4.41373e-05
-8.45753e-05
9.45346e-05
-8.83079e-05
9.90483e-05
-2.06997e-05
-0.000179383
7.27398e-05
-5.36523e-05
0.000159752
5.4334e-07
-0.000221154
3.45299e-05
-1.67232e-05
0.000189476
1.38713e-05
-0.000171898
7.64243e-06
0.000156614
7.64244e-06
-0.000160194
-1.53208e-05
2.27507e-05
0.000148602
4.16197e-06
-0.000130565
-2.91112e-05
3.30187e-05
0.000129416
-2.75842e-06
-8.68369e-05
-3.27754e-05
2.69704e-05
0.000103243
-1.06009e-05
-5.44907e-05
-1.54114e-05
-2.35396e-11
8.53531e-05
-1.54511e-05
-6.67052e-05
1.54113e-05
-2.69704e-05
9.19554e-05
-1.36911e-05
-0.000109506
3.27753e-05
-3.30187e-05
0.000116523
-6.77333e-06
-0.00014772
2.91112e-05
-2.27507e-05
0.000140357
1.00233e-06
-0.000168107
1.53207e-05
-7.64249e-06
0.000153985
6.44417e-06
-0.000146586
3.23473e-06
0.000140117
3.23474e-06
-0.000141222
-6.35229e-06
9.14288e-06
0.000136577
1.85433e-06
-0.000128946
-1.12577e-05
1.2238e-05
0.000128773
-8.07673e-07
-0.0001132
-1.16367e-05
9.20856e-06
0.00011924
-3.61205e-06
-0.000103028
-5.11178e-06
-3.91399e-11
0.000113332
-5.19215e-06
-0.000106726
5.11171e-06
-9.20864e-06
0.000115457
-4.63475e-06
-0.000121059
1.16366e-05
-1.22381e-05
0.000123937
-2.27729e-06
-0.000135859
1.12576e-05
-9.14297e-06
0.000133122
6.22103e-07
-0.000144807
6.35223e-06
-3.2348e-06
0.000138932
2.75739e-06
-0.000136016
1.26858e-06
0.000133479
1.26859e-06
-0.000133697
-2.45874e-06
3.46941e-06
0.000131954
7.315e-07
-0.000128739
-4.17065e-06
4.4191e-06
0.00012878
-2.89448e-07
-0.000122917
-4.09977e-06
3.1771e-06
0.000125172
-1.33239e-06
-0.00011942
-1.73863e-06
-5.13359e-11
0.000123058
-1.8996e-06
-0.000120668
1.73855e-06
-3.1772e-06
0.000123808
-1.70148e-06
-0.000125756
4.09969e-06
-4.41919e-06
0.000126917
-8.41076e-07
-0.000131478
4.17057e-06
-3.46951e-06
0.000130521
2.5599e-07
-0.000135234
2.45866e-06
-1.26865e-06
0.000132962
1.08245e-06
-0.000131976
4.03396e-07
0.000131169
4.03406e-07
-0.000130955
-7.78185e-07
1.08983e-06
0.000130455
1.88653e-07
-0.000128877
-1.2982e-06
1.36186e-06
0.00012903
-2.16867e-07
-0.00012658
-1.25144e-06
9.61914e-07
0.000127496
-6.25763e-07
-0.000125264
-5.23579e-07
-6.07786e-11
0.000126632
-8.4509e-07
-0.000125729
5.23498e-07
-9.62031e-07
0.000126936
-7.68763e-07
-0.000127683
1.25136e-06
-1.36197e-06
0.000128228
-4.33949e-07
-0.000130009
1.29811e-06
-1.08995e-06
0.000129802
-7.35111e-10
-0.000131628
7.78092e-07
-4.03473e-07
0.000130925
3.28897e-07
-0.000130853
-2.74357e-08
0.000130907
-2.74243e-08
-0.000130312
4.61116e-08
-5.12354e-08
0.000130452
-1.34551e-07
-0.000129255
4.25753e-08
-2.57983e-08
0.000129574
-3.36228e-07
-0.000128142
8.38062e-09
2.42167e-09
0.000128669
-5.38285e-07
-0.000127527
-4.43398e-09
-6.81825e-11
0.000128177
-6.45926e-07
-0.000127742
4.35497e-09
-2.55279e-09
0.000128349
-6.08534e-07
-0.000128669
-8.46574e-09
2.56768e-08
0.000129096
-4.437e-07
-0.000129824
-4.2667e-08
5.11169e-08
0.000130044
-2.28861e-07
-0.000130667
-4.62117e-08
2.73542e-08
0.00013075
-6.46071e-08
-0.000131277
-3.3372e-07
0.000131945
-3.33708e-07
-0.000130847
6.25839e-07
-8.40508e-07
0.000131503
-4.41618e-07
-0.000130027
9.5102e-07
-9.45273e-07
0.000130666
-6.45012e-07
-0.000129195
8.25612e-07
-6.09186e-07
0.000129826
-8.47742e-07
-0.000128748
3.22692e-07
-7.41102e-11
0.000129381
-9.54831e-07
-0.000128904
-3.22769e-07
6.09043e-07
0.000129535
-9.1772e-07
-0.000129586
-8.25697e-07
9.45142e-07
0.000130219
-7.53068e-07
-0.000130465
-9.51113e-07
8.40383e-07
0.000131112
-5.36762e-07
-0.000131128
-6.25945e-07
3.33635e-07
0.000131792
-3.7113e-07
-0.000132918
-6.47795e-07
0.000134214
-6.47782e-07
-0.000132452
1.21918e-06
-1.64455e-06
0.000133741
-8.63109e-07
-0.000131568
1.86851e-06
-1.86232e-06
0.000132835
-1.27307e-06
-0.000130687
1.62885e-06
-1.20214e-06
0.00013194
-1.67929e-06
-0.000130226
6.36776e-07
-7.87474e-11
0.00013148
-1.89043e-06
-0.000130385
-6.36853e-07
1.20199e-06
0.000131638
-1.81761e-06
-0.000131098
-1.62893e-06
1.86218e-06
0.000132355
-1.4904e-06
-0.000132039
-1.86861e-06
1.64442e-06
0.000133318
-1.05461e-06
-0.000132757
-1.21929e-06
6.47708e-07
0.000134051
-7.22159e-07
-0.000135836
-9.51755e-07
0.000137739
-9.51742e-07
-0.000135422
1.80207e-06
-2.44635e-06
0.00013753
-1.46414e-06
-0.000134607
2.78805e-06
-2.77198e-06
0.000137059
-2.46846e-06
-0.000133812
2.40832e-06
-1.76328e-06
0.000136621
-3.4535e-06
-0.00013342
9.28307e-07
-8.16905e-11
0.00013644
-3.94867e-06
-0.000133553
-9.28384e-07
1.76312e-06
0.000136498
-3.77947e-06
-0.000134177
-2.4084e-06
2.77183e-06
0.000136813
-2.99968e-06
-0.000135043
-2.78814e-06
2.44622e-06
0.000137316
-1.93093e-06
-0.000135695
-1.80219e-06
9.51666e-07
0.000137672
-1.12683e-06
-0.000139777
-9.17681e-07
0.000141612
-9.17669e-07
-0.00014004
1.78166e-06
-2.48587e-06
0.000142777
-2.03203e-06
-0.000140387
2.87312e-06
-2.82974e-06
0.000144728
-4.38449e-06
-0.000140779
2.39676e-06
-1.70444e-06
0.000146727
-6.6402e-06
-0.000141069
8.77684e-07
-8.18938e-11
0.00014789
-7.69864e-06
-0.000140961
-8.77759e-07
1.70428e-06
0.000147478
-7.34333e-06
-0.000140575
-2.39684e-06
2.82959e-06
0.000145765
-5.6226e-06
-0.000140215
-2.87322e-06
2.48573e-06
0.000143712
-3.10968e-06
-0.000139878
-1.78178e-06
9.17591e-07
0.000142031
-1.28863e-06
-0.000142611
4.35089e-07
0.00014174
4.35098e-07
-0.000145257
-6.76385e-07
6.77346e-07
0.000146451
-1.19515e-06
-0.000149949
-6.07447e-07
6.87348e-07
0.000155158
-5.28853e-06
-0.000154648
-7.83453e-07
7.14824e-07
0.000163719
-9.00234e-06
-0.00015721
-4.28859e-07
-7.86528e-11
0.000168175
-1.05352e-05
-0.000156316
4.28792e-07
-7.14976e-07
0.000166638
-1.00352e-05
-0.000152429
7.83377e-07
-6.8749e-07
0.000159735
-7.40112e-06
-0.000147485
6.07355e-07
-6.77474e-07
0.000150552
-2.997e-06
-0.000143545
6.76269e-07
-4.35175e-07
0.000143381
-7.71478e-08
-0.00013759
4.48034e-06
0.000128629
4.48035e-06
-0.000144567
-8.31908e-06
1.10117e-05
0.000137282
4.59204e-06
-0.0001579
-1.23133e-05
1.22151e-05
0.000153879
4.11905e-06
-0.00017076
-1.06763e-05
7.87341e-06
0.00016963
3.93327e-06
-0.000177202
-4.16766e-06
-7.26042e-11
0.000177352
4.0178e-06
-0.000175
4.1676e-06
-7.87355e-06
0.000174726
3.97979e-06
-0.000164851
1.06762e-05
-1.22152e-05
0.000162443
3.94765e-06
-0.000150801
1.23132e-05
-1.10118e-05
0.000145053
4.44673e-06
-0.000139995
8.31897e-06
-4.48042e-06
0.000131603
4.55321e-06
-0.000113721
1.06184e-05
9.2484e-05
1.06184e-05
-0.000122935
-2.00477e-05
2.70646e-05
0.000100857
1.50604e-05
-0.000140599
-3.0522e-05
2.97579e-05
0.000116523
2.48402e-05
-0.000157008
-2.5293e-05
1.81778e-05
0.000130683
3.34402e-05
-0.00016488
-9.45774e-06
-6.225e-11
0.00013735
3.69879e-05
-0.000162216
9.45769e-06
-1.81779e-05
0.000135103
3.58329e-05
-0.000149578
2.52929e-05
-2.9758e-05
0.000124314
2.97296e-05
-0.000131217
3.0522e-05
-2.70647e-05
0.000108275
1.94849e-05
-0.000116885
2.00476e-05
-1.06185e-05
9.53711e-05
1.20848e-05
-6.54732e-05
1.57422e-05
3.39888e-05
1.57422e-05
-7.19659e-05
-2.97899e-05
4.02348e-05
3.76483e-05
2.38728e-05
-8.40634e-05
-4.5115e-05
4.33853e-05
4.46149e-05
4.11781e-05
-9.45408e-05
-3.63028e-05
2.5753e-05
5.03577e-05
5.47329e-05
-9.92792e-05
-1.32885e-05
-4.7899e-11
5.28153e-05
5.97525e-05
-9.76953e-05
1.32885e-05
-2.57531e-05
5.20023e-05
5.81575e-05
-8.99001e-05
3.63028e-05
-4.33854e-05
4.78691e-05
4.91137e-05
-7.77186e-05
4.51149e-05
-4.02348e-05
4.09502e-05
3.18883e-05
-6.77099e-05
2.97898e-05
-1.57423e-05
3.5241e-05
1.84213e-05
-0.00179426
0.00204827
0.000655146
0.00159085
-0.0016758
-0.0016758
0.00140509
0.000541418
0.00140509
-0.00139226
-0.00122298
0.00109354
0.000420536
0.00110116
-0.000719434
-0.000946346
0.000666271
0.000328839
0.000670669
-0.000374444
-0.000337713
1.38416e-10
0.000284061
0.000428096
-0.000478751
0.000337713
-0.00066627
0.000299236
0.000508073
-0.00112088
0.000946346
-0.00109354
0.000370526
0.000897546
-0.00156281
0.00122298
-0.00140509
0.000477627
0.00126729
-0.0017523
0.0016758
-0.00204827
0.000606684
0.00151808
-0.00156014
-0.00136033
0.00186992
0.00218587
0.00136468
-0.00145998
-0.00107989
-0.00145998
0.00120711
0.00158563
0.00120711
-0.0012189
-0.0008307
-0.00105089
0.000943198
0.00120735
0.000949946
-0.000624987
-0.000645362
-0.000819651
0.000576587
0.000932065
0.000581348
-0.000325976
-0.00055479
-0.000292046
1.43756e-10
0.000797936
0.000374875
-0.000415348
-0.000585282
0.000292046
-0.000576587
0.000842513
0.000442658
-0.000983239
-0.000730371
0.000819651
-0.000943198
0.00106067
0.000776482
-0.00136434
-0.000945703
0.00105089
-0.00120711
0.00137564
0.00109063
-0.00152464
-0.00123044
0.00145998
-0.00186992
0.00186226
0.00130275
-0.000815981
-0.00327993
0.000652877
0.00261838
0.000824653
-0.000754975
-0.00195811
-0.000754975
0.000732925
0.00200221
0.000732925
-0.000618411
-0.00149508
-0.000683754
0.000622153
0.00159687
0.000578216
-0.000364611
-0.00116051
-0.00053085
0.000378622
0.00129693
0.000380425
-0.00022458
-0.000999308
-0.000194679
1.4238e-10
0.00115034
0.000268233
-0.000269125
-0.0010521
0.000194679
-0.000378622
0.0011992
0.00030597
-0.000506151
-0.0013207
0.00053085
-0.000622153
0.00143685
0.000481309
-0.000698092
-0.00169391
0.000683754
-0.000732925
0.00177918
0.000661995
-0.000794484
-0.0023865
0.000754976
-0.000652876
0.00228908
0.000789808
-0.000322537
-0.0022342
0.000181027
0.0019896
0.000386118
-0.000295101
-0.00191865
-0.000295101
0.000347517
0.00181381
0.000347517
-0.000239967
-0.00161131
-0.000356483
0.000333452
0.00159509
0.000279216
-0.000170129
-0.00137368
-0.000281982
0.000203534
0.00141743
0.000204829
-0.000129675
-0.00125679
-0.000106286
1.41324e-10
0.00132963
0.000163124
-0.00014356
-0.00129633
0.000106286
-0.000203534
0.00135956
0.000177568
-0.000205093
-0.00148263
0.000281982
-0.000333451
0.00149838
0.000240817
-0.00027045
-0.00175627
0.000356484
-0.000347517
0.00170209
0.000315661
-0.000312943
-0.00209166
0.000295102
-0.000181026
0.00191836
0.000372168
-0.00013649
-0.00182798
7.00337e-05
0.00171936
0.000175083
-0.000125677
-0.00172335
-0.000125677
0.000160353
0.001654
0.000160353
-0.000105052
-0.00157184
-0.000173413
0.000166611
0.00155008
0.000133615
-8.28869e-05
-0.00144299
-0.000142314
0.000103513
0.0014582
0.000106475
-7.05279e-05
-0.00137889
-5.44045e-05
1.39688e-10
0.00141209
9.17278e-05
-7.4838e-05
-0.00140084
5.44047e-05
-0.000103513
0.00142792
9.68607e-05
-9.34927e-05
-0.00150171
0.000142315
-0.000166611
0.00150021
0.000119291
-0.000116148
-0.00164791
0.000173414
-0.000160353
0.0016032
0.000147797
-0.000132719
-0.00178823
0.000125677
-7.00335e-05
0.00169542
0.000169882
-6.12493e-05
-0.0016456
3.09587e-05
0.00159516
8.07303e-05
-5.71678e-05
-0.00160338
-5.71679e-05
7.52331e-05
0.00156725
7.5233e-05
-4.95193e-05
-0.00153224
-8.34771e-05
8.16479e-05
0.00151847
6.51204e-05
-4.17579e-05
-0.00146736
-7.05204e-05
5.1659e-05
0.0014729
5.50778e-05
-3.7566e-05
-0.00143448
-2.72673e-05
1.37175e-10
0.00144959
4.97228e-05
-3.90257e-05
-0.00144579
2.72676e-05
-5.16587e-05
0.00145762
5.15835e-05
-4.54099e-05
-0.00149714
7.05207e-05
-8.16476e-05
0.0014939
5.97788e-05
-5.35942e-05
-0.00156905
8.34774e-05
-7.52328e-05
0.00154392
7.0479e-05
-5.98275e-05
-0.00163046
5.71682e-05
-3.09586e-05
0.00158527
7.88067e-05
-2.8526e-05
-0.00156047
1.44718e-05
0.00153649
3.8034e-05
-2.69912e-05
-0.00154172
-2.69912e-05
3.59725e-05
0.00152376
3.59724e-05
-2.41257e-05
-0.00150817
-4.041e-05
3.99346e-05
0.00150062
3.21501e-05
-2.12666e-05
-0.00147627
-3.47605e-05
2.56001e-05
0.00147833
2.83675e-05
-1.97437e-05
-0.00145981
-1.35553e-05
1.33451e-10
0.00146674
2.63638e-05
-2.02728e-05
-0.00146549
1.35555e-05
-2.55999e-05
0.00147075
2.70592e-05
-2.26047e-05
-0.00149102
3.47607e-05
-3.99344e-05
0.00148867
3.01341e-05
-2.56484e-05
-0.00152578
4.04103e-05
-3.59722e-05
0.00151281
3.41771e-05
-2.79918e-05
-0.00155387
2.69915e-05
-1.44716e-05
0.00153203
3.73152e-05
-1.36574e-05
-0.00151984
6.97011e-06
0.00150822
1.83077e-05
-1.30532e-05
-0.00151113
-1.30532e-05
1.74959e-05
0.00150225
1.74959e-05
-1.1924e-05
-0.00149515
-1.97754e-05
1.96551e-05
0.00149121
1.59826e-05
-1.08006e-05
-0.0014796
-1.71901e-05
1.27047e-05
0.0014804
1.44818e-05
-1.02045e-05
-0.00147147
-6.74156e-06
1.28193e-10
0.00147473
1.36871e-05
-1.04114e-05
-0.00147428
6.74174e-06
-1.27044e-05
0.0014767
1.39628e-05
-1.13257e-05
-0.00148683
1.71902e-05
-1.96549e-05
0.00148544
1.51827e-05
-1.25239e-05
-0.0015036
1.97756e-05
-1.74957e-05
0.00149705
1.6786e-05
-1.34472e-05
-0.0015168
1.30535e-05
-6.96999e-06
0.00150613
1.80251e-05
-6.81086e-06
-0.00150005
3.46434e-06
0.00149424
9.1593e-06
-6.50214e-06
-0.00149596
-6.50217e-06
8.74395e-06
0.00149148
8.7439e-06
-5.92346e-06
-0.00148839
-9.92079e-06
9.89837e-06
0.00148637
7.96599e-06
-5.34638e-06
-0.00148094
-8.68643e-06
6.43708e-06
0.00148134
7.1911e-06
-5.03984e-06
-0.00147702
-3.42145e-06
1.2135e-10
0.0014787
6.7798e-06
-5.14626e-06
-0.00147838
3.42161e-06
-6.43685e-06
0.00147962
6.92257e-06
-5.61623e-06
-0.00148441
8.6866e-06
-9.89815e-06
0.00148369
7.55334e-06
-6.23114e-06
-0.0014924
9.92098e-06
-8.74375e-06
0.00148908
8.37949e-06
-6.70359e-06
-0.00149863
6.50241e-06
-3.46423e-06
0.00149328
9.01493e-06
-3.87628e-06
-0.00149
1.88099e-06
0.00148675
5.24017e-06
-3.54297e-06
-0.00148821
-3.543e-06
4.79077e-06
0.00148572
4.79073e-06
-2.91569e-06
-0.00148492
-5.47191e-06
5.49833e-06
0.00148386
3.94586e-06
-2.28664e-06
-0.00148172
-4.85707e-06
3.61878e-06
0.00148214
3.0998e-06
-1.95091e-06
-0.00148005
-1.93016e-06
1.13403e-10
0.00148128
2.64875e-06
-2.0676e-06
-0.00148062
1.9303e-06
-3.61856e-06
0.00148157
2.80548e-06
-2.58125e-06
-0.0014832
4.85721e-06
-5.49812e-06
0.00148293
3.4959e-06
-3.24963e-06
-0.00148666
5.47207e-06
-4.79059e-06
0.00148483
4.39549e-06
-3.76058e-06
-0.00148937
3.54321e-06
-1.88089e-06
0.00148639
5.0841e-06
-3.3134e-06
-0.00148404
1.37114e-06
0.00148143
4.55141e-06
-2.61697e-06
-0.00148364
-2.617e-06
3.61018e-06
0.00148165
3.61013e-06
-1.3007e-06
-0.00148306
-4.22425e-06
4.35341e-06
0.0014824
1.83641e-06
3.0244e-08
-0.00148272
-3.93694e-06
2.98933e-06
0.00148359
4.99394e-08
7.46697e-07
-0.00148264
-1.61414e-06
1.0534e-10
0.00148441
-9.08684e-07
4.9712e-07
-0.00148266
1.61425e-06
-2.98912e-06
0.00148411
-5.74995e-07
-5.94751e-07
-0.00148285
3.93706e-06
-4.35322e-06
0.00148297
8.87948e-07
-2.00252e-06
-0.00148334
4.22438e-06
-3.61001e-06
0.00148195
2.78128e-06
-3.07179e-06
-0.00148389
2.61718e-06
-1.37105e-06
0.00148149
4.22462e-06
-5.15222e-06
-0.00147848
1.73038e-06
0.00147462
7.27435e-06
-3.40201e-06
-0.00147939
-3.40204e-06
4.89918e-06
0.0014764
4.89914e-06
-6.93168e-08
-0.00148174
-6.02263e-06
6.51986e-06
0.0014809
4.09336e-07
3.35846e-06
-0.00148494
-6.16031e-06
4.84105e-06
0.00148706
-4.16282e-06
5.24004e-06
-0.00148702
-2.67213e-06
9.80737e-11
0.0014911
-6.6516e-06
4.58107e-06
-0.00148627
2.67222e-06
-4.84086e-06
0.00148963
-5.78176e-06
1.7395e-06
-0.00148333
6.1604e-06
-6.51969e-06
0.00148396
-2.00929e-06
-1.85142e-06
-0.00148039
6.02274e-06
-4.89903e-06
0.00147831
2.80481e-06
-4.54564e-06
-0.00147877
3.4022e-06
-1.7303e-06
0.00147519
6.44977e-06
-1.10502e-05
-0.00146911
3.21994e-06
0.00146083
1.61109e-05
-6.58213e-06
-0.001472
-6.58216e-06
9.99673e-06
0.00146517
9.9967e-06
2.05724e-06
-0.00147959
-1.30169e-05
1.48864e-05
0.00147729
-1.62216e-06
1.1302e-05
-0.00149039
-1.47568e-05
1.20447e-05
0.00149556
-1.37562e-05
1.66342e-05
-0.0014977
-6.81562e-06
9.11354e-11
0.00150848
-2.06014e-05
1.47398e-05
-0.00149502
6.81568e-06
-1.20445e-05
0.0015037
-1.81836e-05
6.87459e-06
-0.0014849
1.47569e-05
-1.48862e-05
0.00148614
-7.98486e-06
-2.59151e-06
-0.00147519
1.3017e-05
-9.9966e-06
0.00147016
4.59685e-06
-9.50448e-06
-0.00147003
6.58229e-06
-3.21987e-06
0.00146218
1.39874e-05
-2.49423e-05
-0.00144816
6.44759e-06
0.00142877
3.78867e-05
-1.38721e-05
-0.00145434
-1.38722e-05
2.24894e-05
0.0014371
2.24894e-05
8.19706e-06
-0.00147301
-3.13164e-05
3.81686e-05
0.00146497
-7.0105e-06
3.40358e-05
-0.00150337
-4.0103e-05
3.44077e-05
0.00151463
-3.9602e-05
5.09043e-05
-0.00152618
-2.01857e-05
8.0522e-11
0.00155512
-5.96602e-05
4.46756e-05
-0.0015176
2.01857e-05
-3.44075e-05
0.00153952
-5.23802e-05
2.12576e-05
-0.00148744
4.01031e-05
-3.81685e-05
0.001488
-2.37495e-05
-3.83404e-06
-0.00146184
3.13164e-05
-2.24893e-05
0.00144797
8.88009e-06
-2.11238e-05
-0.00145004
1.38723e-05
-6.44755e-06
0.00143121
3.25275e-05
-5.29778e-05
-0.00139934
1.18324e-05
0.00135547
8.50189e-05
-2.74098e-05
-0.00140993
-2.74099e-05
4.83991e-05
0.00136795
4.83991e-05
2.64981e-05
-0.00144993
-7.32714e-05
9.68991e-05
0.00142226
-2.24624e-05
0.000102588
-0.00152941
-0.00011051
0.000102774
0.00154481
-0.000110259
0.000168427
-0.00160168
-6.45839e-05
5.38872e-11
0.00167357
-0.000175731
0.000141725
-0.00157288
6.45839e-05
-0.000102774
0.00161976
-0.000150411
6.24369e-05
-0.00148563
0.00011051
-9.6899e-05
0.00147516
-6.55776e-05
-3.62248e-06
-0.00142498
7.32714e-05
-4.83991e-05
0.00138758
1.61476e-05
-4.41915e-05
-0.00140229
2.74099e-05
-1.18323e-05
0.00135872
7.21865e-05
-9.81958e-05
-0.00129186
1.82509e-05
0.00120332
0.000168481
-4.68134e-05
-0.0013052
-4.68134e-05
9.1516e-05
0.00121579
9.1516e-05
7.13792e-05
-0.00137305
-0.000152323
0.000222385
0.00129011
-5.84971e-05
0.000301675
-0.00154966
-0.000284176
0.000301767
0.00151444
-0.000284052
0.000640411
-0.00177364
-0.000218328
-1.5634e-11
0.00187404
-0.000522488
0.000476081
-0.0016737
0.000218328
-0.000301767
0.00169954
-0.000418484
0.000167242
-0.00144564
0.000284176
-0.000222385
0.00137731
-0.000160702
2.76806e-06
-0.00132868
0.000152323
-9.1516e-05
0.00124046
2.46507e-05
-8.05959e-05
-0.00129503
4.68133e-05
-1.82509e-05
0.00120596
0.000141097
-0.000144631
-0.00108709
2.27015e-05
0.000946301
0.000262722
-6.44334e-05
-0.0010967
-6.44334e-05
0.000137091
0.000951383
0.000137091
0.000137004
-0.00116174
-0.000246109
0.000391558
0.000987153
-0.000107867
0.000699376
-0.00138329
-0.000560887
0.000699421
0.00110621
-0.000560828
0.00246555
-0.00183719
-0.000634175
-8.08606e-11
0.0013042
-0.00129839
0.00137479
-0.00159584
0.000634174
-0.000699421
0.00120909
-0.000922795
0.000337409
-0.00124371
0.000560887
-0.000391558
0.00103213
-0.000295157
1.56227e-05
-0.0011176
0.000246109
-0.000137091
0.000962811
3.015e-05
-0.000117192
-0.0010889
6.44333e-05
-2.27015e-05
0.000947216
0.000217147
-0.000154918
-0.000792036
2.35453e-05
0.000639335
0.000284074
-6.8181e-05
-0.000791546
-6.8181e-05
0.000147273
0.000633363
0.000147273
0.000152482
-0.000787482
-0.000267633
0.000430916
0.000591267
-0.00011955
0.000785399
-0.000771521
-0.000624625
0.000785418
0.000449929
-0.0006246
0.00269208
-0.000734782
-0.000709433
-7.36814e-11
0.000204826
-0.00145269
0.00153879
-0.000754633
0.000709433
-0.000785418
0.000325164
-0.00103334
0.000376659
-0.000781863
0.000624625
-0.000430916
0.000538138
-0.000326643
1.88645e-05
-0.000790299
0.000267633