/*--------------------------------*- C++ -*----------------------------------*\
  =========                 |
  \\      /  F ield         | OpenFOAM: The Open Source CFD Toolbox
   \\    /   O peration     | Website:  https://openfoam.org
    \\  /    A nd           | Version:  6
     \\/     M anipulation  |
\*---------------------------------------------------------------------------*/
FoamFile
{
    version     2.0;
    format      ascii;
    class       volVectorField;
    location    "0";
    object      U;
}
// * * * * * * * * * * * * * * * * * * * * * * * * * * * * * * * * * * * * * //

dimensions      [0 1 -1 0 0 0 0];

internalField   nonuniform List<vector> 
24232
(
(0.92219 0.92219 0.155621)
(0.909653 0.677023 0.131029)
(0.867188 0.643667 0.10238)
(0.127391 0.687328 0.0758587)
(0.0465388 0.108607 0.0620685)
(0.0667421 -0.350647 0.0666898)
(0.803121 -0.782338 0.0886391)
(0.895099 -0.624788 0.116453)
(0.918046 -0.781043 0.14529)
(0.884586 0.884586 0.894631)
(0.873983 0.584965 0.709239)
(0.837377 0.557033 0.557262)
(0.112969 0.614335 0.381708)
(0.0404041 0.0939729 0.296629)
(0.0580934 -0.306094 0.323142)
(0.779603 -0.69576 0.476905)
(0.861597 -0.536423 0.630669)
(0.881084 -0.696615 0.800732)
(0.13704 0.13704 1.57954)
(0.130575 0.328127 1.17966)
(0.11196 0.332384 0.966498)
(0.0536403 0.285772 0.604855)
(0.0266689 0.0554954 0.465555)
(0.0343195 -0.169638 0.505012)
(0.0907918 -0.33968 0.838002)
(0.123606 -0.329264 1.06877)
(0.134875 -0.300236 1.33074)
(0.0391214 0.0391214 0.950546)
(0.0362053 0.141731 0.84476)
(0.0297221 0.159346 0.721409)
(0.0201432 0.118089 0.602845)
(0.0145785 0.0259041 0.541938)
(0.0164484 -0.0756194 0.5622)
(0.025128 -0.146633 0.660668)
(0.0334154 -0.15831 0.782577)
(0.0381242 -0.103629 0.905187)
(0.0151595 0.0151595 0.746752)
(0.0140067 0.0623145 0.709468)
(0.0117264 0.0751018 0.65167)
(0.00915817 0.0550878 0.599083)
(0.0077019 0.0122505 0.572105)
(0.00820945 -0.0355116 0.581365)
(0.0104008 -0.0687865 0.623436)
(0.0129666 -0.0731586 0.681227)
(0.0147609 -0.0424575 0.732875)
(0.00662742 0.00662742 0.663456)
(0.00619175 0.0283959 0.648153)
(0.00536465 0.0355541 0.621725)
(0.00451201 0.0264181 0.597022)
(0.0040474 0.00590742 0.584328)
(0.00420939 -0.0170882 0.588705)
(0.00491474 -0.0328386 0.608428)
(0.00580701 -0.0340989 0.635494)
(0.00647611 -0.0188773 0.658006)
(0.00305816 0.00305816 0.626163)
(0.00289435 0.013312 0.619391)
(0.00258709 0.017005 0.607165)
(0.00227876 0.0127905 0.595422)
(0.0021139 0.00287422 0.589326)
(0.00217122 -0.00830052 0.591432)
(0.00242326 -0.0158192 0.600866)
(0.00275059 -0.0161569 0.613599)
(0.00300121 -0.0087634 0.623786)
(0.00145846 0.00145846 0.608714)
(0.00139402 0.00639303 0.605611)
(0.00127339 0.00825388 0.599896)
(0.00115315 0.00625974 0.594313)
(0.00108924 0.00141191 0.591388)
(0.00111143 -0.00407235 0.5924)
(0.00120938 -0.00771395 0.596911)
(0.00133752 -0.00780072 0.602919)
(0.00143606 -0.00418998 0.607631)
(0.000725755 0.000725759 0.600262)
(0.000692864 0.00319405 0.598857)
(0.000631187 0.00415238 0.596252)
(0.000569637 0.00316884 0.593689)
(0.000536923 0.000716958 0.592342)
(0.000548282 -0.00206571 0.592809)
(0.000598424 -0.00389392 0.594883)
(0.000663988 -0.00391037 0.597633)
(0.00071433 -0.00208796 0.599773)
(0.000411658 0.000411661 0.595862)
(0.000376195 0.00182331 0.59535)
(0.000309421 0.0023989 0.594422)
(0.000242397 0.00185265 0.59354)
(0.0002066 0.000421838 0.593089)
(0.000219044 -0.00121271 0.593244)
(0.000273796 -0.0022639 0.593947)
(0.000344978 -0.00224477 0.59491)
(0.00039935 -0.00118695 0.595683)
(0.000348221 0.000348224 0.592933)
(0.000274225 0.00157298 0.593093)
(0.000134116 0.00214712 0.593498)
(-7.92658e-06 0.0017203 0.594049)
(-8.45513e-05 0.000399472 0.594407)
(-5.78453e-05 -0.00114059 0.594277)
(5.88232e-05 -0.00206629 0.593772)
(0.000208867 -0.00197025 0.593265)
(0.000322562 -0.00101093 0.592984)
(0.000531653 0.000531657 0.589559)
(0.000346072 0.00248533 0.59062)
(-8.99414e-06 0.00361051 0.592997)
(-0.000376646 0.00307435 0.595945)
(-0.000579638 0.000737438 0.597788)
(-0.000508442 -0.00208192 0.597124)
(-0.000202675 -0.00358923 0.594488)
(0.000181155 -0.00320597 0.591666)
(0.000467405 -0.00156213 0.589912)
(0.00111603 0.00111604 0.583236)
(0.000643985 0.00543223 0.585987)
(-0.000279282 0.00849366 0.592539)
(-0.00128408 0.00779581 0.601396)
(-0.00187325 0.00195232 0.607386)
(-0.00166297 -0.00542767 0.605182)
(-0.00080051 -0.00878237 0.596915)
(0.000219279 -0.00725387 0.588809)
(0.000953144 -0.0033261 0.58414)
(0.00245186 0.00245187 0.56946)
(0.00128952 0.0125658 0.575387)
(-0.00109033 0.0216745 0.591181)
(-0.00399756 0.0222875 0.616342)
(-0.00599118 0.00603078 0.636619)
(-0.00524329 -0.016286 0.628751)
(-0.00254155 -0.0237293 0.603018)
(0.000217669 -0.0175548 0.581909)
(0.00205324 -0.00744035 0.571357)
(0.00502636 0.00502636 0.540274)
(0.00236647 0.0275993 0.550962)
(-0.00358319 0.0548789 0.584543)
(-0.012897 0.0689188 0.65509)
(-0.0222217 0.0222415 0.738014)
(-0.0182374 -0.055964 0.70127)
(-0.00783296 -0.0660136 0.614737)
(-0.000200009 -0.0410654 0.56395)
(0.00412374 -0.0156219 0.543571)
(0.00893714 0.00893715 0.484927)
(0.00365017 0.0533353 0.499036)
(-0.0100455 0.128865 0.553626)
(-0.0436558 0.232623 0.729557)
(-0.116819 0.116829 1.20804)
(-0.0765219 -0.24493 0.924502)
(-0.0228549 -0.180982 0.616889)
(-0.00182652 -0.086102 0.518341)
(0.00717016 -0.0285763 0.489093)
(0.0127237 0.0127237 0.39752)
(0.0045403 0.0814706 0.406679)
(-0.0203225 0.239028 0.447711)
(-0.12683 0.752808 0.628289)
(-4.37537 1.11429 1.73527)
(-0.344982 -1.60741 0.926073)
(-0.051712 -0.409471 0.504314)
(-0.00457479 -0.14179 0.420279)
(0.010028 -0.0416498 0.400141)
(0.0135474 0.0135474 0.290406)
(0.00470905 0.0877985 0.286274)
(-0.022711 0.264041 0.267434)
(-0.141885 0.828963 0.187928)
(-3.49638 1.08708 -0.0861329)
(-0.372542 -1.6255 0.0802166)
(-0.0580144 -0.456865 0.241576)
(-0.0052422 -0.154534 0.280061)
(0.0106429 -0.044531 0.28923)
(0.0106766 0.0106766 0.192088)
(0.00409723 0.065886 0.17871)
(-0.0142403 0.174171 0.122857)
(-0.0721529 0.396264 -0.0960998)
(-0.292931 0.292931 -1.29909)
(-0.150517 -0.528298 -0.429104)
(-0.0339573 -0.266923 0.0511633)
(-0.00295109 -0.110186 0.159631)
(0.00849252 -0.0345226 0.188198)
(0.00652913 0.00652914 0.123368)
(0.00289873 0.0371259 0.110761)
(-0.00569798 0.0798954 0.0676778)
(-0.0217136 0.115039 -0.0392689)
(-0.0433176 0.0433162 -0.209023)
(-0.0330749 -0.102195 -0.124866)
(-0.0125242 -0.102046 0.0247943)
(-0.000703472 -0.0571278 0.0946808)
(0.00530468 -0.0205368 0.119547)
(0.00334464 0.00334464 0.0845954)
(0.00167478 0.0176364 0.0767712)
(-0.00185741 0.0322095 0.0545676)
(-0.00657809 0.035722 0.0153133)
(-0.0102836 0.0102799 -0.0208791)
(-0.00882745 -0.027095 -0.00616877)
(-0.00413995 -0.0365685 0.0367247)
(0.000108668 -0.0252784 0.0678271)
(0.00277427 -0.0102506 0.0821258)
(0.00152849 0.00152849 0.0657024)
(0.000832395 0.00761429 0.0617591)
(-0.000551684 0.012426 0.0519962)
(-0.00212017 0.0119491 0.0380159)
(-0.00309021 0.00308227 0.0279688)
(-0.00273822 -0.00847635 0.0317321)
(-0.00135467 -0.0131588 0.0452058)
(0.000200466 -0.0103724 0.0576154)
(0.00128883 -0.00459265 0.0644184)
(0.000646948 0.000646946 0.0573406)
(0.000370865 0.00309903 0.0555596)
(-0.000161535 0.00469914 0.0515439)
(-0.000722409 0.00416905 0.0464881)
(-0.00103843 0.00102235 0.0432721)
(-0.00092695 -0.00286407 0.0444366)
(-0.000455457 -0.00477495 0.0489992)
(0.000124421 -0.00408011 0.0537961)
(0.000551479 -0.0019174 0.0567479)
(0.000253717 0.000253716 0.0538991)
(0.0001463 0.00118563 0.0531302)
(-5.78897e-05 0.00171795 0.0515039)
(-0.000266477 0.00145537 0.0496176)
(-0.000379919 0.000347715 0.0484956)
(-0.000340296 -0.00098315 0.0488953)
(-0.000168215 -0.00170378 0.0505347)
(5.11981e-05 -0.00152802 0.0523997)
(0.000216489 -0.000745462 0.0536393)
(8.06811e-05 8.06791e-05 0.0526291)
(3.77306e-05 0.000373604 0.052282)
(-4.33735e-05 0.000532011 0.0515815)
(-0.000125153 0.000442672 0.0508152)
(-0.000169018 0.000104704 0.0503792)
(-0.000153753 -0.000297106 0.0505329)
(-8.67897e-05 -0.000522665 0.0511822)
(-1.47022e-07 -0.000477611 0.0519622)
(6.57794e-05 -0.000236313 0.0525105)
(-5.48487e-06 -5.48715e-06 0.052352)
(-2.69102e-05 -1.94694e-05 0.0521528)
(-6.72457e-05 -1.36747e-05 0.0517657)
(-0.000107657 -1.19179e-06 0.0513622)
(-0.000129185 8.7316e-07 0.0511408)
(-0.000121707 -1.38155e-06 0.0512182)
(-8.874e-05 6.82852e-06 0.0515531)
(-4.57722e-05 1.87568e-05 0.0519737)
(-1.29214e-05 1.47132e-05 0.0522833)
(-6.67415e-05 -6.6744e-05 0.0526444)
(-8.83236e-05 -0.000293269 0.05247)
(-0.000129002 -0.000379259 0.0521386)
(-0.000169548 -0.00028696 0.0518043)
(-0.000190966 -6.45532e-05 0.0516258)
(-0.000183544 0.000186363 0.0516878)
(-0.000150614 0.000354168 0.0519609)
(-0.000107352 0.000358299 0.0523155)
(-7.4226e-05 0.000191916 0.052584)
(-0.000129556 -0.000129559 0.0534264)
(-0.000172622 -0.000572746 0.0532386)
(-0.000254614 -0.000746166 0.0528805)
(-0.000335859 -0.000566197 0.0525255)
(-0.000378087 -0.000127371 0.0523411)
(-0.000363522 0.000367768 0.0524047)
(-0.00029808 0.000698222 0.0526905)
(-0.000210923 0.000702606 0.0530713)
(-0.000144432 0.0003734 0.0533615)
(-0.000190348 -0.000190351 0.0547149)
(-0.000292828 -0.000849684 0.0545904)
(-0.000493691 -0.001112 0.0543331)
(-0.0006907 -0.00083432 0.0540865)
(-0.000789734 -0.000185678 0.0539719)
(-0.000755893 0.000538302 0.0540101)
(-0.000599936 0.00103605 0.0541979)
(-0.000386186 0.00104687 0.0544717)
(-0.000225366 0.000550771 0.0546733)
(-0.000183534 -0.000183536 0.0562779)
(-0.000406406 -0.000853505 0.0565634)
(-0.000876898 -0.00114057 0.057023)
(-0.00132804 -0.00082024 0.0575013)
(-0.00153973 -0.000175553 0.0577919)
(-0.00146867 0.000516409 0.0576877)
(-0.00112452 0.00104529 0.0572681)
(-0.000621935 0.00107179 0.0567855)
(-0.000257727 0.000539873 0.0563818)
(8.70197e-05 8.70177e-05 0.0568702)
(-0.00023903 0.000270746 0.0583417)
(-0.00105771 0.000258959 0.0610215)
(-0.00180047 0.000299655 0.0636733)
(-0.00210703 8.57562e-05 0.065077)
(-0.00200704 -0.000228754 0.0645908)
(-0.00148022 -0.000294173 0.0624328)
(-0.0005994 -0.000256966 0.0596072)
(-1.54296e-05 -0.000222289 0.0573851)
(0.000896069 0.000896068 0.0532437)
(0.000918408 0.00386616 0.0563697)
(0.00082381 0.00490569 0.0623559)
(0.000786654 0.00370994 0.068078)
(0.00080356 0.000833517 0.0709107)
(0.000795958 -0.00240823 0.0699451)
(0.00078953 -0.0045783 0.0654588)
(0.000889345 -0.00466501 0.0591707)
(0.000910642 -0.00255988 0.0543195)
(0.00212368 0.00212368 0.041241)
(0.00301208 0.00942248 0.0447584)
(0.00496804 0.012056 0.0514243)
(0.00668804 0.00869415 0.0575381)
(0.00739758 0.00189153 0.0604461)
(0.00716658 -0.00552712 0.0594639)
(0.00594593 -0.0110102 0.0547784)
(0.00389699 -0.0115173 0.0478983)
(0.00241697 -0.00613322 0.0424513)
(0.00314844 0.00314844 0.0198924)
(0.00477455 0.0140049 0.0219228)
(0.00823563 0.0177001 0.0257357)
(0.0109466 0.0124112 0.0289797)
(0.0119505 0.0026577 0.0304189)
(0.0116315 -0.00780832 0.0299395)
(0.00982273 -0.0159376 0.0275538)
(0.00637767 -0.0170699 0.0237338)
(0.00368426 -0.00910642 0.0205902)
(0.677023 0.909653 0.131029)
(0.616178 0.616178 0.108284)
(0.498684 0.463304 0.0841072)
(0.278021 0.322523 0.0657679)
(0.160508 0.0675426 0.0568123)
(0.197365 -0.200797 0.0598472)
(0.403685 -0.407977 0.0741051)
(0.566019 -0.525614 0.0955253)
(0.654076 -0.744813 0.121337)
(0.584965 0.873983 0.709239)
(0.533419 0.533419 0.533104)
(0.43377 0.398817 0.407609)
(0.241267 0.279248 0.315485)
(0.14017 0.0584092 0.270545)
(0.171601 -0.173727 0.285559)
(0.351944 -0.35257 0.358209)
(0.490994 -0.4516 0.464269)
(0.565478 -0.66598 0.618539)
(0.328127 0.130575 1.17966)
(0.29758 0.29758 0.792065)
(0.239326 0.261181 0.618389)
(0.149007 0.181894 0.491488)
(0.0985627 0.0389359 0.429929)
(0.115019 -0.11466 0.450259)
(0.197492 -0.230601 0.55151)
(0.272017 -0.283336 0.694619)
(0.316858 -0.28157 0.935115)
(0.141731 0.0362053 0.84476)
(0.128524 0.128524 0.746492)
(0.103837 0.137987 0.641279)
(0.0749916 0.0971032 0.558223)
(0.0585598 0.0212572 0.517285)
(0.0642255 -0.061964 0.531178)
(0.089182 -0.123087 0.596201)
(0.117222 -0.1408 0.691672)
(0.137022 -0.0952256 0.802003)
(0.0623145 0.0140067 0.709468)
(0.0572061 0.0572061 0.675469)
(0.0477335 0.0680049 0.624384)
(0.0378724 0.0491655 0.580239)
(0.0324511 0.0108809 0.558196)
(0.0343397 -0.0315835 0.565751)
(0.0425567 -0.0617851 0.600385)
(0.052789 -0.0667534 0.650222)
(0.0605202 -0.0391422 0.696731)
(0.0283959 0.00619175 0.648153)
(0.0264802 0.0264802 0.634125)
(0.0229279 0.033025 0.610141)
(0.0193671 0.0244359 0.588051)
(0.0174578 0.00545349 0.576813)
(0.0181218 -0.0157853 0.580681)
(0.0210377 -0.0304337 0.598209)
(0.0248147 -0.031742 0.622596)
(0.0277268 -0.0176254 0.643146)
(0.013312 0.00289435 0.619391)
(0.0125927 0.0125927 0.613095)
(0.0112552 0.0160689 0.601759)
(0.00992684 0.0120721 0.590919)
(0.00922151 0.00271109 0.58531)
(0.0094664 -0.00783108 0.587247)
(0.0105478 -0.014939 0.595938)
(0.0119651 -0.0152765 0.607719)
(0.0130614 -0.00829263 0.61718)
(0.00639301 0.00139402 0.605611)
(0.0061098 0.00610982 0.602675)
(0.00558131 0.0078861 0.597273)
(0.00505648 0.00597895 0.592)
(0.00477833 0.00134834 0.589241)
(0.00487485 -0.00388923 0.590196)
(0.00530167 -0.00736903 0.594452)
(0.00586197 -0.00745425 0.60013)
(0.00629448 -0.00400469 0.604586)
(0.00319403 0.000692867 0.598857)
(0.00304921 0.00304922 0.597489)
(0.00277789 0.00396383 0.594952)
(0.0025075 0.0030247 0.592457)
(0.00236393 0.000684313 0.591146)
(0.00241377 -0.00197169 0.5916)
(0.00263391 -0.00371695 0.593619)
(0.00292213 -0.00373295 0.596297)
(0.0031437 -0.00199333 0.598381)
(0.00182329 0.000376198 0.59535)
(0.00166674 0.00166675 0.594785)
(0.00137231 0.00219405 0.593756)
(0.00107729 0.00169517 0.592771)
(0.000919932 0.000386055 0.592265)
(0.000974617 -0.00110977 0.592439)
(0.00121543 -0.00207107 0.593227)
(0.00152902 -0.00205253 0.594298)
(0.00176894 -0.00108482 0.595152)
(0.00157296 0.000274228 0.593093)
(0.00124542 0.00124544 0.593058)
(0.000627423 0.00171553 0.593092)
(3.93906e-06 0.00138525 0.593261)
(-0.000331076 0.00032285 0.59341)
(-0.000214423 -0.000920675 0.593354)
(0.00029654 -0.00165806 0.593165)
(0.000956759 -0.00156688 0.593058)
(0.00145928 -0.000797647 0.593077)
(0.00248531 0.000346075 0.59062)
(0.00166023 0.00166024 0.591159)
(9.57306e-05 0.0025085 0.592527)
(-0.00150426 0.00220027 0.594399)
(-0.00237833 0.000534446 0.595625)
(-0.00207257 -0.00150261 0.59518)
(-0.000749759 -0.00253602 0.593457)
(0.000931246 -0.00218435 0.59174)
(0.00219908 -0.0010265 0.590793)
(0.00543221 0.000643988 0.585987)
(0.00331577 0.00331578 0.587434)
(-0.000735879 0.00558066 0.591376)
(-0.00501164 0.00536031 0.597191)
(-0.00744713 0.00136314 0.601235)
(-0.00658467 -0.00377204 0.599744)
(-0.00297189 -0.00592862 0.594208)
(0.00143767 -0.00460272 0.589069)
(0.00469837 -0.00196043 0.586441)
(0.0125658 0.00128952 0.575387)
(0.0072723 0.00727231 0.578289)
(-0.00304151 0.013897 0.587598)
(-0.0147276 0.0149021 0.6036)
(-0.0221129 0.00403716 0.616262)
(-0.0194112 -0.0109187 0.611424)
(-0.00900142 -0.0156543 0.595088)
(0.00254282 -0.0107611 0.581962)
(0.0107303 -0.00406396 0.57625)
(0.0275993 0.00236647 0.550962)
(0.0151618 0.0151618 0.555577)
(-0.0097921 0.0340341 0.574438)
(-0.0425696 0.0426568 0.614845)
(-0.0688316 0.0129168 0.655049)
(-0.0584271 -0.0334716 0.638528)
(-0.0256029 -0.0414818 0.592159)
(0.00395401 -0.0243341 0.562512)
(0.0232756 -0.00784845 0.552201)
(0.0533353 0.00365017 0.499036)
(0.0276659 0.0276659 0.504197)
(-0.0259753 0.0749417 0.532633)
(-0.117145 0.117188 0.612819)
(-0.23258 0.0436656 0.729536)
(-0.178913 -0.104019 0.67465)
(-0.065589 -0.101312 0.56459)
(0.00437652 -0.0487678 0.513829)
(0.0443387 -0.0130128 0.500199)
(0.0814706 0.0045403 0.406679)
(0.0403048 0.0403048 0.409616)
(-0.0489742 0.127534 0.429778)
(-0.252041 0.252062 0.4979)
(-0.752787 0.126835 0.628279)
(-0.459517 -0.266719 0.560987)
(-0.126513 -0.190489 0.455168)
(0.00290545 -0.0766399 0.416083)
(0.0668677 -0.017427 0.407224)
(0.0877985 0.00470906 0.286274)
(0.0430907 0.0430907 0.284982)
(-0.0544065 0.13971 0.27575)
(-0.282 0.282009 0.24429)
(-0.828955 0.141887 0.187921)
(-0.514427 -0.29897 0.215959)
(-0.14066 -0.211108 0.264)
(0.00245702 -0.0829812 0.282045)
(0.0719134 -0.0183452 0.286045)
(0.065886 0.00409723 0.17871)
(0.0334066 0.0334066 0.174112)
(-0.0356703 0.097514 0.145913)
(-0.169937 0.169938 0.0580052)
(-0.396263 0.0721531 -0.0961044)
(-0.279704 -0.162766 -0.0182982)
(-0.0906883 -0.138163 0.112224)
(0.00390664 -0.0610775 0.164822)
(0.0544424 -0.0151024 0.177758)
(0.0371259 0.00289873 0.110761)
(0.0198907 0.0198907 0.105654)
(-0.0152677 0.0483701 0.0821357)
(-0.066304 0.0662978 0.0257519)
(-0.115045 0.0217122 -0.0392743)
(-0.0944947 -0.0545176 -0.0111204)
(-0.0389234 -0.0615289 0.0583272)
(0.00430713 -0.0332288 0.0972937)
(0.0311177 -0.00989418 0.109471)
(0.0176364 0.00167478 0.0767712)
(0.00995441 0.00995441 0.0731014)
(-0.00518326 0.0203662 0.0602174)
(-0.0232829 0.0232664 0.036096)
(-0.0357385 0.00657435 0.0153045)
(-0.031051 -0.0175001 0.0234616)
(-0.0142319 -0.0237008 0.0492009)
(0.00306595 -0.015247 0.0681532)
(0.0149708 -0.00538829 0.0757174)
(0.0076143 0.000832394 0.0617591)
(0.00447511 0.00447511 0.0597006)
(-0.00157412 0.00800374 0.0538059)
(-0.00811986 0.00808486 0.0446539)
(-0.0119841 0.00211223 0.0379992)
(-0.0106006 -0.00578924 0.0404831)
(-0.00496762 -0.00873771 0.0494077)
(0.00168195 -0.00640567 0.0572937)
(0.00652594 -0.00257568 0.0611225)
(0.00309904 0.000370864 0.0555596)
(0.00186777 0.00186776 0.0545547)
(-0.000475154 0.00303709 0.0520596)
(-0.00289761 0.00282673 0.0486765)
(-0.00423994 0.000706327 0.0464552)
(-0.00376845 -0.00196681 0.0472633)
(-0.00175069 -0.00317286 0.0503794)
(0.000778101 -0.00254925 0.0534896)
(0.002672 -0.00111985 0.0552348)
(0.00118564 0.000146298 0.0531302)
(0.000709335 0.000709328 0.0526646)
(-0.000191074 0.00108721 0.0516194)
(-0.00110397 0.000961975 0.0503379)
(-0.00159737 0.000234274 0.0495521)
(-0.00142529 -0.000658196 0.0498336)
(-0.00067481 -0.00110496 0.0509682)
(0.000289146 -0.000940265 0.0522038)
(0.00102036 -0.000435668 0.0529755)
(0.000373613 3.77286e-05 0.052282)
(0.000183713 0.000183703 0.052046)
(-0.000174103 0.000282673 0.0515563)
(-0.000533839 0.000250155 0.0510045)
(-0.000726347 6.08395e-05 0.0506847)
(-0.000659389 -0.000171038 0.0507979)
(-0.000365218 -0.000287441 0.0512706)
(1.64728e-05 -0.000244085 0.0518245)
(0.000307698 -0.000112547 0.0522019)
(-1.94585e-05 -2.69124e-05 0.0521528)
(-0.000114074 -0.000114085 0.051981)
(-0.00029209 -0.000137394 0.0516459)
(-0.000470279 -9.60874e-05 0.051295)
(-0.000565137 -2.06504e-05 0.051102)
(-0.00053219 6.0581e-05 0.0511695)
(-0.000386886 0.000123171 0.0514611)
(-0.00019734 0.000134923 0.0518262)
(-5.22996e-05 7.64342e-05 0.0520936)
(-0.000293258 -8.8326e-05 0.05247)
(-0.000388779 -0.000388791 0.0522672)
(-0.000568889 -0.000504013 0.0518814)
(-0.000748408 -0.000381917 0.0514935)
(-0.000843213 -8.59543e-05 0.0512876)
(-0.00081036 0.000248119 0.051359)
(-0.000664576 0.000471092 0.051675)
(-0.000473026 0.000475612 0.0520873)
(-0.000326375 0.000254151 0.0523999)
(-0.000572734 -0.000172624 0.0532386)
(-0.000765381 -0.000765393 0.0529415)
(-0.0011331 -0.000998849 0.0523696)
(-0.00149751 -0.000755832 0.0518049)
(-0.00168664 -0.000169559 0.0515152)
(-0.00162143 0.0004901 0.0516147)
(-0.00132812 0.000933726 0.0520666)
(-0.000937054 0.00094028 0.0526749)
(-0.000639217 0.000498118 0.0531364)
(-0.000849672 -0.000292831 0.0545904)
(-0.00132213 -0.00132214 0.0541997)
(-0.00225962 -0.00174167 0.0533794)
(-0.00317785 -0.00129242 0.0525926)
(-0.00363576 -0.00028486 0.0522255)
(-0.00347959 0.000828782 0.0523483)
(-0.00275587 0.00161572 0.0529476)
(-0.00175665 0.00163825 0.0538232)
(-0.00101049 0.000851122 0.0544603)
(-0.000853494 -0.000406408 0.0565634)
(-0.00196514 -0.00196515 0.0563958)
(-0.00444917 -0.00269267 0.055642)
(-0.0068011 -0.00186868 0.0550323)
(-0.00786842 -0.000390349 0.054897)
(-0.00751251 0.00115793 0.0549296)
(-0.00575336 0.00242977 0.0552611)
(-0.00308612 0.00252222 0.0560906)
(-0.0012177 0.0012133 0.0565287)
(0.000270756 -0.000239032 0.0583417)
(-0.0016947 -0.00169471 0.0598715)
(-0.00796774 -0.00284691 0.0617754)
(-0.0132535 -0.00146305 0.0640428)
(-0.0152229 -0.000242287 0.0654759)
(-0.0145897 0.000782928 0.0649694)
(-0.0110824 0.00225128 0.0628839)
(-0.00423204 0.00261581 0.0609243)
(-0.00031321 0.000835933 0.0589058)
(0.00386617 0.000918407 0.0563697)
(0.00360846 0.00360845 0.0615873)
(0.00143259 0.00426542 0.072826)
(0.000382321 0.00360864 0.083227)
(0.000188718 0.000835267 0.0879214)
(0.00024132 -0.00239349 0.0863528)
(0.000710921 -0.00425994 0.0786205)
(0.00281329 -0.00403745 0.0666741)
(0.00384487 -0.00254534 0.0581116)
(0.00942248 0.00301207 0.0447584)
(0.0141503 0.0141503 0.0509842)
(0.028854 0.0190559 0.0642043)
(0.0407487 0.0126275 0.0753164)
(0.0450717 0.00261961 0.0799892)
(0.0436888 -0.0077785 0.0784508)
(0.0359229 -0.0167008 0.0705282)
(0.019843 -0.0181169 0.0570322)
(0.0109025 -0.00886921 0.0468343)
(0.0140049 0.00477455 0.0219228)
(0.0225108 0.0225108 0.0258159)
(0.044102 0.0288351 0.0346854)
(0.0586744 0.017841 0.0399987)
(0.0632819 0.00358743 0.041603)
(0.0618524 -0.0107609 0.0411039)
(0.0530642 -0.0243563 0.038016)
(0.0319466 -0.0283223 0.0298159)
(0.0166983 -0.0141095 0.0231959)
(0.643667 0.867188 0.10238)
(0.463304 0.498684 0.0841072)
(0.325271 0.325271 0.0662893)
(0.215218 0.192675 0.0548488)
(0.158299 0.0401777 0.049806)
(0.177676 -0.118864 0.0514991)
(0.266859 -0.260052 0.0597905)
(0.389355 -0.399441 0.0744121)
(0.551689 -0.645639 0.0944604)
(0.557033 0.837377 0.557262)
(0.398817 0.43377 0.407609)
(0.281715 0.281715 0.314528)
(0.188309 0.168377 0.261223)
(0.14002 0.0352303 0.238084)
(0.156446 -0.104114 0.245834)
(0.232186 -0.226384 0.284061)
(0.335988 -0.344813 0.354442)
(0.475038 -0.581157 0.478005)
(0.332384 0.11196 0.966498)
(0.261181 0.239326 0.618389)
(0.191764 0.191764 0.488092)
(0.134168 0.120535 0.417226)
(0.10434 0.0255567 0.386369)
(0.114552 -0.0752024 0.396709)
(0.161029 -0.159422 0.447611)
(0.225044 -0.218874 0.541934)
(0.29957 -0.235642 0.740153)
(0.159346 0.0297221 0.721409)
(0.137987 0.103837 0.641279)
(0.107806 0.107806 0.561969)
(0.0810501 0.0728896 0.507079)
(0.0671856 0.0157614 0.481929)
(0.071969 -0.0460886 0.490431)
(0.0934346 -0.094058 0.531189)
(0.123018 -0.112153 0.59891)
(0.151058 -0.0777155 0.685872)
(0.0751018 0.0117264 0.65167)
(0.0680049 0.0477335 0.624384)
(0.0561723 0.0561723 0.584452)
(0.0451642 0.0400813 0.551479)
(0.0394496 0.00881759 0.535535)
(0.0414255 -0.0256429 0.540973)
(0.0502599 -0.050681 0.566325)
(0.0623036 -0.0554702 0.604456)
(0.072536 -0.032737 0.641392)
(0.0355541 0.00536465 0.621725)
(0.033025 0.022928 0.610141)
(0.028519 0.028519 0.590488)
(0.0242001 0.0210214 0.572643)
(0.021947 0.00468164 0.563668)
(0.0227267 -0.0135608 0.56675)
(0.0262046 -0.0262299 0.580814)
(0.0308849 -0.0274554 0.600664)
(0.0346618 -0.0152685 0.617585)
(0.017005 0.00258709 0.607165)
(0.0160689 0.0112552 0.601759)
(0.0143543 0.0143543 0.592048)
(0.0126814 0.0107738 0.582798)
(0.0118037 0.00241809 0.578029)
(0.0121077 -0.0069862 0.579675)
(0.0134599 -0.0133387 0.587076)
(0.0152603 -0.0136512 0.59715)
(0.0166777 -0.00741227 0.605266)
(0.00825385 0.0012734 0.599896)
(0.00788607 0.00558133 0.597273)
(0.00720357 0.00720359 0.592447)
(0.00653037 0.00546055 0.58774)
(0.0061753 0.00123127 0.58528)
(0.00629839 -0.00355173 0.586131)
(0.00684434 -0.00673074 0.589929)
(0.00756542 -0.00680942 0.594998)
(0.00812572 -0.00365822 0.598981)
(0.00415235 0.00063119 0.596252)
(0.00396381 0.0027779 0.594952)
(0.00361129 0.00361131 0.592541)
(0.00326084 0.00275572 0.59017)
(0.0030751 0.000623452 0.588923)
(0.00313955 -0.00179634 0.589355)
(0.00342458 -0.00338641 0.591275)
(0.00379858 -0.00340088 0.593819)
(0.00408679 -0.00181591 0.595799)
(0.00239888 0.000309424 0.594422)
(0.00219402 0.00137233 0.593756)
(0.00180971 0.00180973 0.592537)
(0.00142585 0.00140046 0.591359)
(0.00122162 0.000319182 0.590749)
(0.00129255 -0.000917295 0.59096)
(0.00160543 -0.00170978 0.591905)
(0.00201411 -0.00169142 0.593181)
(0.0023277 -0.000892585 0.59419)
(0.0021471 0.000134119 0.593498)
(0.00171551 0.000627438 0.593092)
(0.000906748 0.000906771 0.592428)
(9.80891e-05 0.00076184 0.591891)
(-0.000333367 0.00018084 0.591657)
(-0.00018338 -0.000512522 0.591734)
(0.000476679 -0.000895909 0.592126)
(0.00133684 -0.000808245 0.592765)
(0.00199706 -0.000394279 0.593353)
(0.00361049 -8.99158e-06 0.592997)
(0.00250848 9.57449e-05 0.592527)
(0.000454284 0.000454305 0.591998)
(-0.00159989 0.0006003 0.591925)
(-0.00270187 0.0001668 0.592074)
(-0.00231805 -0.000449424 0.592008)
(-0.000637086 -0.000591273 0.591903)
(0.00154566 -0.000262513 0.592223)
(0.00322666 -4.88746e-06 0.592819)
(0.00849365 -0.00027928 0.592539)
(0.00558064 -0.000735866 0.591376)
(0.000227568 0.000227585 0.590436)
(-0.0051255 0.00108455 0.591074)
(-0.0080385 0.000358346 0.592077)
(-0.00701872 -0.000918298 0.591674)
(-0.00260916 -0.000805343 0.590578)
(0.0030643 0.000377656 0.590738)
(0.00747386 0.000690717 0.592081)
(0.0216745 -0.00109033 0.591181)
(0.013897 -0.0030415 0.587598)
(0.000113949 0.000113958 0.585009)
(-0.0136691 0.0032161 0.587446)
(-0.0214466 0.00112993 0.590949)
(-0.0186874 -0.00284368 0.58954)
(-0.00714318 -0.00212744 0.585671)
(0.00737107 0.0019133 0.585751)
(0.0189153 0.00272974 0.589744)
(0.0548789 -0.00358319 0.584543)
(0.0340341 -0.00979209 0.574438)
(5.69591e-05 5.69581e-05 0.56764)
(-0.0339202 0.00987936 0.574362)
(-0.054765 0.00360298 0.584426)
(-0.0471321 -0.00893975 0.58029)
(-0.0175751 -0.00631831 0.569482)
(0.0176891 0.0062113 0.569522)
(0.047246 0.00888281 0.580392)
(0.128865 -0.0100455 0.553626)
(0.0749417 -0.0259752 0.532633)
(2.82729e-05 2.82591e-05 0.519881)
(-0.0748852 0.0260185 0.532594)
(-0.128808 0.0100553 0.553567)
(-0.10778 -0.0243496 0.544576)
(-0.0378146 -0.0161795 0.523296)
(0.0378711 0.0161265 0.523316)
(0.107837 0.0243214 0.544628)
(0.239028 -0.0203225 0.447711)
(0.127534 -0.0489742 0.429778)
(1.36279e-05 1.36036e-05 0.41967)
(-0.127506 0.0489951 0.429758)
(-0.239001 0.0203272 0.44768)
(-0.191864 -0.0477368 0.439751)
(-0.0624448 -0.0296043 0.422334)
(0.0624721 0.0295787 0.422345)
(0.191891 0.0477232 0.439778)
(0.264041 -0.022711 0.267434)
(0.13971 -0.0544065 0.27575)
(5.74067e-06 5.71244e-06 0.280443)
(-0.139698 0.0544152 0.275738)
(-0.26403 0.0227129 0.267416)
(-0.211257 -0.0532131 0.271086)
(-0.0681399 -0.0327733 0.279198)
(0.0681514 0.0327626 0.279204)
(0.211269 0.0532075 0.271102)
(0.174171 -0.0142403 0.122857)
(0.097514 -0.0356703 0.145913)
(6.89729e-07 6.64415e-07 0.159306)
(-0.0975126 0.0356713 0.145904)
(-0.17417 0.0142405 0.122844)
(-0.143164 -0.0340064 0.132922)
(-0.0485689 -0.0218777 0.155734)
(0.0485703 0.0218765 0.155739)
(0.143165 0.0340057 0.132934)
(0.0798954 -0.00569798 0.0676778)
(0.0483701 -0.0152677 0.0821357)
(-4.03045e-06 -4.0496e-06 0.0914597)
(-0.0483782 0.0152615 0.0821255)
(-0.0799035 0.00569656 0.0676622)
(-0.0680828 -0.0140007 0.0737018)
(-0.0248522 -0.00962612 0.0889113)
(0.0248442 0.00963375 0.0889167)
(0.0680747 0.0140048 0.0737154)
(0.0322096 -0.00185741 0.0545676)
(0.0203662 -0.00518326 0.0602174)
(-1.07585e-05 -1.07725e-05 0.0641386)
(-0.0203877 0.00516676 0.0602008)
(-0.0322311 0.00185366 0.0545421)
(-0.0279825 -0.00463236 0.0568334)
(-0.0106846 -0.00331484 0.0630417)
(0.0106631 0.0033351 0.0630506)
(0.0279609 0.00464316 0.0568559)
(0.012426 -0.000551685 0.0519962)
(0.00800375 -0.00157412 0.0538059)
(-2.28336e-05 -2.28454e-05 0.0551023)
(-0.00804941 0.00153912 0.0537745)
(-0.0124717 0.00054374 0.051948)
(-0.0109165 -0.00136816 0.0526764)
(-0.00426696 -0.000987819 0.0547254)
(0.00422129 0.00103077 0.0547422)
(0.0108709 0.00139103 0.0527188)
(0.00469916 -0.000161536 0.0515439)
(0.0030371 -0.00047516 0.0520596)
(-4.62565e-05 -4.62688e-05 0.0524192)
(-0.00312961 0.00040427 0.0519977)
(-0.00479167 0.000145453 0.0514491)
(-0.00421179 -0.000364725 0.0516658)
(-0.001683 -0.000242767 0.0522925)
(0.00159049 0.000329733 0.0523255)
(0.00411928 0.000411015 0.0517492)
(0.00171796 -5.78912e-05 0.0515039)
(0.00108722 -0.000191082 0.0516194)
(-9.26725e-05 -9.26867e-05 0.0516674)
(-0.00127256 4.90821e-05 0.0514963)
(-0.00190329 2.56885e-05 0.0513154)
(-0.00168389 -5.93826e-05 0.0513854)
(-0.000719942 8.79692e-06 0.0516037)
(0.000534601 0.000165399 0.0516692)
(0.00149856 0.000152081 0.0515512)
(0.000532028 -4.33752e-05 0.0515815)
(0.000282689 -0.000174113 0.0515563)
(-0.000185172 -0.000185189 0.0514632)
(-0.000653001 -0.000109559 0.0513108)
(-0.000902296 -2.09288e-05 0.0512055)
(-0.000815671 6.41602e-05 0.0512439)
(-0.000434032 0.000152949 0.0513895)
(6.36986e-05 0.000195073 0.0515202)
(0.000445389 0.000120979 0.0515747)
(-1.36568e-05 -6.72477e-05 0.0517657)
(-0.000137376 -0.000292101 0.0516459)
(-0.000369855 -0.000369873 0.0514082)
(-0.000602181 -0.000274176 0.0511555)
(-0.000725704 -6.1015e-05 0.0510153)
(-0.000682813 0.000176812 0.0510644)
(-0.000493498 0.00034164 0.0512755)
(-0.000246165 0.000353349 0.0515366)
(-5.66201e-05 0.000192599 0.0517247)
(-0.000379239 -0.000129005 0.0521386)
(-0.000503994 -0.000568901 0.0518814)
(-0.000739291 -0.000739311 0.0513911)
(-0.000973868 -0.000560994 0.0509001)
(-0.00109776 -0.000126307 0.0506414)
(-0.00105483 0.000364571 0.0507309)
(-0.000864322 0.000691615 0.0511294)
(-0.000614046 0.000696848 0.0516527)
(-0.000422496 0.000371463 0.0520497)
(-0.000746146 -0.000254617 0.0528805)
(-0.000998828 -0.00113311 0.0523696)
(-0.00148223 -0.00148225 0.051375)
(-0.00196194 -0.00111833 0.0503952)
(-0.00221096 -0.000250126 0.0498979)
(-0.0021251 0.000723803 0.0500683)
(-0.00173893 0.00138419 0.0508479)
(-0.00122437 0.00139463 0.0519069)
(-0.0008333 0.000735792 0.0527054)
(-0.00111198 -0.000493693 0.0543331)
(-0.00174165 -0.00225963 0.0533794)
(-0.00300356 -0.00300358 0.0513104)
(-0.00424248 -0.00220343 0.0493325)
(-0.00485893 -0.000480979 0.0484224)
(-0.0046488 0.0014043 0.0487262)
(-0.0036735 0.00277387 0.0502198)
(-0.00232496 0.00282061 0.0524378)
(-0.00132573 0.0014425 0.0540184)
(-0.00114055 -0.0008769 0.057023)
(-0.00269265 -0.00444918 0.055642)
(-0.00633273 -0.00633275 0.0508307)
(-0.00977273 -0.00421354 0.0467814)