/*--------------------------------*- C++ -*----------------------------------*\
  =========                 |
  \\      /  F ield         | OpenFOAM: The Open Source CFD Toolbox
   \\    /   O peration     | Website:  https://openfoam.org
    \\  /    A nd           | Version:  6
     \\/     M anipulation  |
\*---------------------------------------------------------------------------*/
FoamFile
{
    version     2.0;
    format      ascii;
    class       volScalarField;
    location    "0";
    object      p;
}
// * * * * * * * * * * * * * * * * * * * * * * * * * * * * * * * * * * * * * //

dimensions      [0 2 -2 0 0 0 0];

internalField   nonuniform List<scalar> 
3029
(
32.5868
32.4982
32.5752
32.4747
32.5093
32.4747
32.5752
32.4982
32.5868
32.578
32.487
32.5711
32.4397
32.4324
32.4397
32.5711
32.4871
32.578
32.1164
32.2276
32.3007
32.2937
32.275
32.2937
32.3007
32.2276
32.1164
32.088
32.1166
32.1335
32.1185
32.1049
32.1185
32.1335
32.1166
32.088
31.983
31.9744
31.963
31.9436
31.9343
31.9436
31.963
31.9744
31.983
31.8062
31.7962
31.7826
31.7685
31.7626
31.7685
31.7826
31.7962
31.8062
31.6189
31.612
31.6021
31.5931
31.5894
31.5931
31.6021
31.612
31.6189
31.4332
31.429
31.4227
31.4172
31.415
31.4172
31.4227
31.429
31.4332
31.2505
31.2481
31.2443
31.241
31.2397
31.241
31.2443
31.2481
31.2506
31.0703
31.0689
31.0667
31.0647
31.0639
31.0647
31.0667
31.0689
31.0703
30.8913
30.8907
30.8895
30.8884
30.8878
30.8884
30.8895
30.8907
30.8913
30.7127
30.7128
30.7127
30.7122
30.7115
30.7122
30.7127
30.7128
30.7127
30.5327
30.534
30.5361
30.5372
30.5361
30.5372
30.5361
30.534
30.5327
30.3477
30.3519
30.3595
30.3667
30.3659
30.3667
30.3595
30.3519
30.3477
30.1503
30.1599
30.1807
30.2091
30.2199
30.2091
30.1807
30.1599
30.1503
29.9275
29.9444
29.9858
30.0584
30.0898
30.0584
29.9858
29.9444
29.9275
29.6641
29.6876
29.7517
29.9159
30.2741
29.9159
29.7517
29.6876
29.6641
29.3515
29.3776
29.4569
29.668
30.3027
29.668
29.4569
29.3776
29.3515
28.9911
29.011
29.0662
29.1845
29.383
29.1845
29.0662
29.011
28.9911
28.5986
28.6113
28.6427
28.6973
28.7548
28.6973
28.6427
28.6113
28.5986
28.1879
28.1954
28.2128
28.24
28.2654
28.24
28.2128
28.1954
28.1879
27.7667
27.771
27.7801
27.7927
27.8019
27.7927
27.7801
27.771
27.7667
27.3394
27.3417
27.3463
27.352
27.3553
27.352
27.3463
27.3417
27.3394
26.908
26.9095
26.9121
26.9149
26.9163
26.9149
26.9121
26.9095
26.9081
26.4732
26.4748
26.4774
26.4798
26.4809
26.4798
26.4774
26.4748
26.4732
26.0331
26.0363
26.0411
26.0454
26.0471
26.0454
26.0411
26.0363
26.0331
25.583
25.5901
25.6005
25.6095
25.613
25.6095
25.6005
25.5901
25.583
25.1136
25.1277
25.1482
25.1656
25.1723
25.1656
25.1482
25.1277
25.1136
24.6108
24.6332
24.6662
24.6923
24.7018
24.6923
24.6662
24.6332
24.6108
24.0659
24.0868
24.1162
24.1324
24.1366
24.1324
24.1162
24.0868
24.0659
23.5067
23.5033
23.4828
23.445
23.4267
23.445
23.4828
23.5033
23.5067
23.0163
22.9732
22.8795
22.7635
22.7149
22.7635
22.8795
22.9732
23.0163
22.6779
22.5899
22.41
22.192
22.1088
22.192
22.4099
22.5899
22.6779
22.523
22.3952
22.1585
21.8578
21.7523
21.8578
22.1585
22.3952
22.523
32.4982
32.3787
32.4556
32.4582
32.4599
32.4583
32.4556
32.3787
32.4982
32.487
32.3759
32.4335
32.407
32.3899
32.407
32.4336
32.3759
32.4871
32.2276
32.2676
32.2896
32.2689
32.2528
32.2689
32.2896
32.2676
32.2276
32.1166
32.1235
32.121
32.1029
32.092
32.1029
32.121
32.1235
32.1166
31.9744
31.9629
31.9491
31.9329
31.9255
31.9329
31.9491
31.9629
31.9744
31.7962
31.7864
31.7735
31.7614
31.7564
31.7614
31.7735
31.7864
31.7962
31.612
31.6056
31.5965
31.5884
31.5852
31.5884
31.5965
31.6056
31.612
31.429
31.425
31.4193
31.4143
31.4123
31.4143
31.4193
31.4251
31.429
31.2481
31.2458
31.2423
31.2393
31.2381
31.2393
31.2423
31.2458
31.2481
31.0689
31.0676
31.0656
31.0638
31.0631
31.0638
31.0656
31.0676
31.0689
30.8907
30.8901
30.8891
30.8881
30.8877
30.8881
30.8891
30.8901
30.8907
30.7128
30.7128
30.7128
30.7125
30.7122
30.7125
30.7128
30.7128
30.7128
30.534
30.535
30.5365
30.5376
30.5376
30.5376
30.5365
30.535
30.534
30.3519
30.3543
30.3593
30.3651
30.3673
30.3651
30.3593
30.3543
30.3519
30.1599
30.1648
30.1773
30.1966
30.2099
30.1966
30.1773
30.1648
30.1599
29.9444
29.9528
29.9774
30.0244
30.0683
30.0245
29.9774
29.9528
29.9444
29.6876
29.6992
29.7381
29.8374
30.0529
29.8374
29.7381
29.6992
29.6876
29.3776
29.3879
29.43
29.5397
29.7631
29.5397
29.43
29.3879
29.3776
29.011
29.0187
29.048
29.1123
29.1994
29.1124
29.048
29.0187
29.011
28.6113
28.6163
28.6333
28.6648
28.6949
28.6648
28.6333
28.6163
28.6113
28.1954
28.1986
28.208
28.2237
28.2362
28.2237
28.208
28.1986
28.1954
27.771
27.7728
27.7777
27.7852
27.7902
27.7852
27.7777
27.7728
27.771
27.3417
27.3427
27.3451
27.3485
27.3505
27.3485
27.3451
27.3427
27.3417
26.9095
26.9101
26.9115
26.9131
26.914
26.9131
26.9115
26.9101
26.9095
26.4748
26.4758
26.4773
26.4789
26.4795
26.4789
26.4773
26.4758
26.4748
26.0363
26.0389
26.0425
26.0458
26.0472
26.0458
26.0425
26.0389
26.0363
25.5901
25.5971
25.6064
25.6148
25.6182
25.6148
25.6064
25.5971
25.5901
25.1277
25.1446
25.1672
25.1871
25.1948
25.1871
25.1672
25.1446
25.1277
24.6332
24.668
24.7189
24.7597
24.7746
24.7597
24.7189
24.668
24.6332
24.0868
24.1353
24.223
24.279
24.2964
24.279
24.223
24.1353
24.0868
23.5033
23.5292
23.5838
23.5881
23.5813
23.5881
23.5838
23.5292
23.5033
22.9732
22.9263
22.8078
22.6449
22.5809
22.6449
22.8078
22.9263
22.9732
22.5899
22.4082
22.0376
21.6536
21.533
21.6536
22.0376
22.4082
22.5899
22.3952
22.0659
21.4296
20.9511
20.8327
20.9511
21.4296
22.0659
22.3952
32.5752
32.4556
32.4591
32.4313
32.4182
32.4313
32.4591
32.4556
32.5752
32.5711
32.4335
32.4101
32.3694
32.3511
32.3694
32.4102
32.4336
32.5711
32.3007
32.2896
32.269
32.2404
32.2265
32.2405
32.269
32.2896
32.3007
32.1335
32.121
32.1034
32.0837
32.0747
32.0837
32.1034
32.121
32.1335
31.963
31.9491
31.9335
31.9192
31.9132
31.9192
31.9335
31.9491
31.963
31.7826
31.7735
31.7617
31.7517
31.7476
31.7517
31.7618
31.7735
31.7826
31.6021
31.5965
31.5885
31.5818
31.5791
31.5818
31.5885
31.5965
31.6021
31.4227
31.4193
31.4143
31.41
31.4083
31.41
31.4143
31.4193
31.4227
31.2443
31.2423
31.2393
31.2367
31.2356
31.2367
31.2393
31.2423
31.2443
31.0667
31.0656
31.0639
31.0624
31.0618
31.0624
31.0639
31.0656
31.0667
30.8895
30.8891
30.8883
30.8875
30.8872
30.8876
30.8883
30.8891
30.8895
30.7127
30.7128
30.7127
30.7124
30.7123
30.7124
30.7127
30.7128
30.7127
30.5361
30.5365
30.5368
30.5372
30.5372
30.5372
30.5368
30.5365
30.5361
30.3595
30.3593
30.3596
30.3612
30.3622
30.3612
30.3596
30.3593
30.3595
30.1807
30.1773
30.1762
30.1809
30.1858
30.1809
30.1762
30.1773
30.1807
29.9858
29.9774
29.9733
29.9846
29.9991
29.9846
29.9733
29.9774
29.9858
29.7517
29.7381
29.7292
29.7515
29.7942
29.7515
29.7292
29.7381
29.7517
29.4569
29.43
29.4179
29.442
29.4899
29.442
29.4179
29.43
29.4569
29.0662
29.048
29.0401
29.0545
29.0771
29.0545
29.0401
29.048
29.0662
28.6427
28.6333
28.6293
28.6362
28.6452
28.6362
28.6293
28.6333
28.6427
28.2128
28.208
28.2058
28.209
28.2127
28.209
28.2058
28.208
28.2128
27.7801
27.7777
27.7765
27.7777
27.7792
27.7777
27.7765
27.7777
27.7801
27.3463
27.3451
27.3443
27.3446
27.3451
27.3446
27.3443
27.3451
27.3463
26.9121
26.9115
26.9109
26.9108
26.9109
26.9108
26.9109
26.9115
26.9121
26.4774
26.4773
26.4771
26.4772
26.4773
26.4772
26.4771
26.4773
26.4774
26.0411
26.0425
26.0438
26.0451
26.0458
26.0451
26.0438
26.0425
26.0411
25.6005
25.6064
25.6116
25.6172
25.6196
25.6172
25.6116
25.6064
25.6005
25.1482
25.1672
25.1824
25.1991
25.206
25.1991
25.1824
25.1672
25.1482
24.6662
24.7189
24.7601
24.8025
24.8189
24.8025
24.7601
24.7189
24.6662
24.1162
24.223
24.354
24.4412
24.4704
24.4412
24.354
24.223
24.1162
23.4828
23.5838
23.9613
24.1193
24.159
24.1193
23.9613
23.5838
23.4828
22.8795
22.8078
22.8078
22.8795
22.41
22.0376
21.1782
20.4644
20.312
20.4644
21.1782
22.0376
22.4099
22.1585
21.4296
19.7141
19.0988
19.0212
19.0988
19.7141
21.4296
22.1585
16.5717
16.5842
16.5725
16.5842
16.5717
14.7847
14.7792
14.7686
14.7792
14.7847
13.4495
13.3915
13.3666
13.3915
13.4495
12.0111
11.9752
11.9574
11.9752
12.0111
10.5772
10.5601
10.5507
10.5601
10.5772
9.15613
9.14876
9.1445
9.14876
9.15613
7.7428
7.7398
7.73802
7.7398
7.7428
6.33316
6.33199
6.33128
6.33199
6.33316
4.92512
4.92467
4.9244
4.92467
4.92512
3.51772
3.51755
3.51745
3.51755
3.51772
2.11057
2.11051
2.11048
2.11051
2.11057
0.703517
0.703502
0.703493
0.703502
0.703517
32.4747
32.4583
32.4313
32.4004
32.3869
32.4004
32.4313
32.4583
32.4747
32.4397
32.407
32.3694
32.3353
32.3208
32.3353
32.3694
32.407
32.4397
32.2937
32.2689
32.2405
32.2149
32.204
32.2149
32.2405
32.2689
32.2937
32.1185
32.1029
32.0837
32.0666
32.0594
32.0666
32.0837
32.1029
32.1185
31.9436
31.9329
31.9192
31.9074
31.9026
31.9074
31.9192
31.9329
31.9436
31.7685
31.7614
31.7517
31.7434
31.7401
31.7434
31.7517
31.7614
31.7685
31.5931
31.5884
31.5818
31.5761
31.5739
31.5761
31.5818
31.5884
31.5931
31.4172
31.4143
31.41
31.4063
31.4048
31.4063
31.41
31.4143
31.4172
31.241
31.2393
31.2367
31.2344
31.2335
31.2344
31.2367
31.2393
31.241
31.0647
31.0638
31.0624
31.0611
31.0606
31.0611
31.0624
31.0638
31.0647
30.8884
30.8881
30.8875
30.8869
30.8867
30.8869
30.8876
30.8881
30.8884
30.7122
30.7125
30.7124
30.7121
30.712
30.7121
30.7124
30.7125
30.7122
30.5372
30.5376
30.5372
30.5365
30.5363
30.5365
30.5372
30.5376
30.5372
30.3667
30.3651
30.3612
30.3585
30.3578
30.3585
30.3612
30.3651
30.3667
30.2091
30.1966
30.1809
30.1727
30.1712
30.1727
30.1809
30.1966
30.2091
30.0584
30.0244
29.9846
29.9662
29.964
29.9662
29.9846
30.0245
30.0584
29.9159
29.8374
29.7515
29.7191
29.7178
29.7191
29.7515
29.8374
29.9159
29.668
29.5397
29.442
29.4067
29.4057
29.4067
29.442
29.5397
29.668
29.1845
29.1123
29.0545
29.0314
29.0295
29.0314
29.0545
29.1124
29.1845
28.6973
28.6648
28.6362
28.6235
28.6217
28.6235
28.6362
28.6648
28.6973
28.24
28.2237
28.209
28.2019
28.2006
28.2019
28.209
28.2237
28.24
27.7927
27.7852
27.7777
27.7738
27.7728
27.7738
27.7777
27.7852
27.7927
27.352
27.3485
27.3446
27.3422
27.3415
27.3422
27.3446
27.3485
27.352
26.9149
26.9131
26.9108
26.9091
26.9086
26.9091
26.9108
26.9131
26.9149
26.4798
26.4788
26.4772
26.4759
26.4755
26.4759
26.4772
26.4788
26.4798
26.0453
26.0458
26.0451
26.0448
26.0448
26.0448
26.0451
26.0458
26.0453
25.6095
25.6148
25.6172
25.6201
25.6216
25.6201
25.6172
25.6148
25.6095
25.1656
25.1871
25.1991
25.2121
25.2176
25.2121
25.1991
25.1871
25.1656
24.6923
24.7597
24.8025
24.8418
24.8563
24.8418
24.8025
24.7597
24.6923
24.1324
24.279
24.4412
24.5419
24.5734
24.5419
24.4412
24.279
24.1324
23.445
23.5881
24.1193
24.352
24.4072
24.352
24.1193
23.5881
23.445
22.7635
22.6449
22.6449
22.7635
22.192
21.6536
20.4644
19.7561
19.6008
19.7561
20.4644
21.6536
22.192
21.8578
20.9511
19.0988
18.455
18.3254
18.455
19.0988
20.9511
21.8578
16.5842
16.5113
16.4523
16.5113
16.5842
14.7792
14.7465
14.7203
14.7465
14.7792
13.3915
13.3234
13.2935
13.3234
13.3915
11.9752
11.936
11.9165
11.936
11.9752
10.5601
10.542
10.5321
10.542
10.5601
9.14876
9.14111
9.13671
9.14111
9.14876
7.7398
7.73673
7.73491
7.73673
7.7398
6.33199
6.3308
6.33008
6.3308
6.33199
4.92467
4.92422
4.92395
4.92422
4.92467
3.51755
3.51739
3.51728
3.51739
3.51755
2.11051
2.11045
2.11042
2.11045
2.11051
0.703502
0.703488
0.703479
0.703488
0.703502
32.5093
32.4599
32.4182
32.3869
32.3743
32.3869
32.4182
32.4599
32.5093
32.4324
32.3899
32.3511
32.3208
32.3082
32.3209
32.3511
32.3899
32.4324
32.275
32.2528
32.2265
32.204
32.1946
32.204
32.2265
32.2528
32.275
32.1049
32.092
32.0747
32.0594
32.0531
32.0594
32.0747
32.092
32.1049
31.9343
31.9255
31.9132
31.9026
31.8983
31.9026
31.9132
31.9255
31.9343
31.7626
31.7564
31.7476
31.7401
31.7371
31.7401
31.7476
31.7564
31.7626
31.5894
31.5852
31.5791
31.5739
31.5718
31.5739
31.5791
31.5852
31.5894
31.415
31.4123
31.4083
31.4048
31.4035
31.4048
31.4083
31.4123
31.415
31.2397
31.2381
31.2357
31.2335
31.2327
31.2335
31.2357
31.2381
31.2397
31.0639
31.0631
31.0618
31.0606
31.0601
31.0606
31.0618
31.0631
31.0639
30.8878
30.8877
30.8872
30.8867
30.8864
30.8867
30.8872
30.8877
30.8878
30.7115
30.7122
30.7123
30.712
30.7118
30.712
30.7123
30.7122
30.7115
30.5361
30.5376
30.5372
30.5363
30.5358
30.5363
30.5372
30.5376
30.5361
30.3659
30.3673
30.3622
30.3578
30.3563
30.3578
30.3622
30.3673
30.3659
30.2199
30.2099
30.1858
30.1712
30.1671
30.1712
30.1858
30.2099
30.2199
30.0898
30.0683
29.9991
29.964
29.9555
29.964
29.9991
30.0683
30.0898
30.2741
30.0529
29.7942
29.7178
29.7031
29.7178
29.7942
30.0529
30.2741
30.3027
29.7631
29.4899
29.4057
29.39
29.4057
29.4899
29.7631
30.3027
29.383
29.1994
29.0771
29.0295
29.0192
29.0295
29.0771
29.1995
29.383
28.7548
28.6949
28.6452
28.6217
28.6159
28.6217
28.6452
28.6949
28.7548
28.2654
28.2362
28.2127
28.2006
28.1973
28.2006
28.2127
28.2362
28.2654
27.8019
27.7902
27.7792
27.7728
27.771
27.7728
27.7792
27.7902
27.8019
27.3553
27.3505
27.3451
27.3415
27.3404
27.3415
27.3451
27.3505
27.3553
26.9163
26.914
26.9109
26.9086
26.9078
26.9086
26.9109
26.914
26.9163
26.4808
26.4795
26.4773
26.4755
26.4749
26.4755
26.4773
26.4795
26.4808
26.0471
26.0472
26.0458
26.0448
26.0445
26.0448
26.0458
26.0472
26.0471
25.613
25.6182
25.6196
25.6216
25.6226
25.6216
25.6196
25.6182
25.613
25.1723
25.1948
25.206
25.2176
25.2223
25.2176
25.206
25.1948
25.1723
24.7018
24.7746
24.8189
24.8563
24.8691
24.8563
24.8189
24.7746
24.7018
24.1366
24.2964
24.4704
24.5734
24.6014
24.5734
24.4704
24.2964
24.1366
23.4267
23.5813
24.159
24.4072
24.4651
24.4072
24.159
23.5813
23.4267
22.7149
22.5809
22.5809
22.7149
22.1088
21.533
20.312
19.6008
19.4381
19.6008
20.312
21.533
22.1088
21.7523
20.8327
19.0212
18.3254
18.1361
18.3254
19.0212
20.8327
21.7523
16.5725
16.4523
16.3613
16.4523
16.5725
14.7686
14.7203
14.6846
14.7203
14.7686
13.3666
13.2935
13.261
13.2935
13.3666
11.9574
11.9165
11.8961
11.9165
11.9574
10.5507
10.5321
10.5219
10.5321
10.5507
9.1445
9.13671
9.13222
9.13671
9.1445
7.73802
7.73491
7.73307
7.73491
7.73802
6.33128
6.33008
6.32936
6.33008
6.33128
4.9244
4.92395
4.92367
4.92395
4.9244
3.51745
3.51728
3.51718
3.51728
3.51745
2.11048
2.11042
2.11038
2.11042
2.11048
0.703493
0.703479
0.70347
0.703479
0.703493
32.4747
32.4583
32.4313
32.4004
32.3869
32.4004
32.4313
32.4583
32.4747
32.4397
32.407
32.3694
32.3353
32.3209
32.3353
32.3694
32.407
32.4397
32.2937
32.2689
32.2405
32.2149
32.204
32.2149
32.2405
32.2689
32.2937
32.1185
32.1029
32.0837
32.0666
32.0594
32.0666
32.0838
32.1029
32.1185
31.9436
31.9329
31.9192
31.9074
31.9026
31.9074
31.9192
31.9329
31.9436
31.7685
31.7614
31.7517
31.7434
31.7401
31.7434
31.7517
31.7614
31.7685
31.5931
31.5884
31.5818
31.5761
31.5739
31.5761
31.5818
31.5884
31.5931
31.4172
31.4143
31.41
31.4063
31.4048
31.4063
31.41
31.4143
31.4172
31.241
31.2393
31.2367
31.2344
31.2335
31.2344
31.2367
31.2393
31.241
31.0647
31.0638
31.0624
31.0611
31.0606
31.0611
31.0624
31.0638
31.0647
30.8884
30.8881
30.8876
30.8869
30.8867
30.8869
30.8876
30.8881
30.8884
30.7122
30.7125
30.7124
30.7121
30.712
30.7121
30.7124
30.7125
30.7122
30.5372
30.5376
30.5372
30.5365
30.5363
30.5365
30.5372
30.5376
30.5372
30.3667
30.3651
30.3612
30.3585
30.3578
30.3585
30.3612
30.3651
30.3667
30.2091
30.1966
30.1809
30.1727
30.1712
30.1727
30.1809
30.1966
30.2091
30.0584
30.0244
29.9846
29.9662
29.964
29.9662
29.9846
30.0245
30.0584
29.9159
29.8374
29.7515
29.7191
29.7178
29.7191
29.7515
29.8374
29.9159
29.668
29.5397
29.442
29.4067
29.4057
29.4067
29.442
29.5397
29.668
29.1845
29.1123
29.0545
29.0314
29.0295
29.0314
29.0545
29.1124
29.1845
28.6973
28.6648
28.6362
28.6235
28.6217
28.6235
28.6362
28.6648
28.6973
28.24
28.2237
28.209
28.2019
28.2006
28.2019
28.209
28.2237
28.24
27.7927
27.7852
27.7777
27.7738
27.7728
27.7738
27.7777
27.7852
27.7927
27.352
27.3485
27.3446
27.3422
27.3415
27.3422
27.3446
27.3485
27.352
26.9149
26.9131
26.9108
26.9091
26.9086
26.9091
26.9108
26.9131
26.9149
26.4798
26.4788
26.4772
26.4759
26.4755
26.4759
26.4772
26.4788
26.4798
26.0453
26.0458
26.0451
26.0448
26.0448
26.0448
26.0451
26.0458
26.0453
25.6095
25.6148
25.6172
25.6201
25.6216
25.6201
25.6172
25.6148
25.6095
25.1656
25.1871
25.1991
25.2121
25.2176
25.2121
25.1991
25.1871
25.1656
24.6923
24.7597
24.8025
24.8418
24.8563
24.8418
24.8025
24.7597
24.6923
24.1324
24.279
24.4412
24.5419
24.5734
24.5419
24.4412
24.279
24.1324
23.445
23.5881
24.1193
24.352
24.4072
24.352
24.1193
23.5881
23.445
22.7635
22.6449
22.6449
22.7635
22.192
21.6536
20.4644
19.7561
19.6008
19.7561
20.4644
21.6536
22.192
21.8578
20.9511
19.0988
18.455
18.3254
18.455
19.0988
20.9511
21.8578
16.5842
16.5113
16.4523
16.5113
16.5842
14.7792
14.7465
14.7203
14.7465
14.7792
13.3915
13.3234
13.2935
13.3234
13.3915
11.9752
11.936
11.9165
11.936
11.9752
10.5601
10.542
10.5321
10.542
10.5601
9.14876
9.14111
9.1367
9.14111
9.14876
7.7398
7.73673
7.73491
7.73673
7.7398
6.33199
6.3308
6.33008
6.3308
6.33199
4.92467
4.92422
4.92395
4.92422
4.92467
3.51755
3.51739
3.51728
3.51739
3.51755
2.11051
2.11045
2.11042
2.11045
2.11051
0.703502
0.703488
0.703479
0.703488
0.703502
32.5752
32.4556
32.4591
32.4313
32.4182
32.4313
32.4591
32.4556
32.5752
32.5711
32.4336
32.4102
32.3694
32.3511
32.3694
32.4102
32.4336
32.5711
32.3007
32.2896
32.269
32.2405
32.2265
32.2405
32.269
32.2896
32.3007
32.1335
32.121
32.1034
32.0838
32.0747
32.0838
32.1034
32.121
32.1335
31.963
31.9491
31.9335
31.9192
31.9132
31.9192
31.9335
31.9491
31.963
31.7826
31.7735
31.7618
31.7517
31.7476
31.7517
31.7618
31.7735
31.7826
31.6021
31.5965
31.5886
31.5818
31.5791
31.5818
31.5886
31.5965
31.6021
31.4227
31.4193
31.4143
31.41
31.4083
31.41
31.4143
31.4193
31.4227
31.2443
31.2423
31.2393
31.2367
31.2357
31.2367
31.2393
31.2423
31.2443
31.0667
31.0656
31.0639
31.0624
31.0618
31.0624
31.0639
31.0656
31.0667
30.8895
30.8891
30.8883
30.8876
30.8872
30.8876
30.8883
30.8891
30.8896
30.7127
30.7128
30.7127
30.7124
30.7123
30.7124
30.7127
30.7128
30.7127
30.5361
30.5365
30.5368
30.5372
30.5372
30.5372
30.5368
30.5365
30.5361
30.3595
30.3593
30.3596
30.3612
30.3622
30.3612
30.3596
30.3593
30.3595
30.1807
30.1773
30.1762
30.1809
30.1858
30.1809
30.1762
30.1773
30.1807
29.9858
29.9774
29.9733
29.9846
29.9991
29.9846
29.9733
29.9774
29.9858
29.7517
29.7381
29.7292
29.7515
29.7942
29.7515
29.7292
29.7381
29.7517
29.4569
29.43
29.4179
29.442
29.4899
29.442
29.4179
29.43
29.4569
29.0662
29.048
29.0401
29.0545
29.0771
29.0545
29.0401
29.048
29.0662
28.6427
28.6333
28.6293
28.6362
28.6452
28.6362
28.6293
28.6333
28.6427
28.2128
28.208
28.2058
28.209
28.2127
28.209
28.2058
28.208
28.2128
27.7801
27.7777
27.7765
27.7777
27.7792
27.7777
27.7765
27.7777
27.7801
27.3463
27.3451
27.3443
27.3446
27.3451
27.3446
27.3443
27.3451
27.3463
26.9121
26.9115
26.9109
26.9108
26.9109
26.9108
26.9109
26.9115
26.9121
26.4773
26.4773
26.4771
26.4772
26.4773
26.4772
26.4771
26.4773
26.4773
26.0411
26.0425
26.0438
26.0451
26.0458
26.0451
26.0438
26.0425
26.0411
25.6005
25.6064
25.6116
25.6172
25.6196
25.6172
25.6116
25.6064
25.6005
25.1482
25.1672
25.1824
25.1991
25.206
25.1991
25.1824
25.1672
25.1482
24.6662
24.7189
24.7601
24.8025
24.8189
24.8025
24.7601
24.7189
24.6662
24.1162
24.223
24.354
24.4412
24.4704
24.4412
24.354
24.223
24.1162
23.4828
23.5838
23.9612
24.1193
24.159
24.1193
23.9612
23.5838
23.4828
22.8795
22.8078
22.8078
22.8795
22.4099
22.0376
21.1782
20.4643
20.312
20.4643
21.1782
22.0376
22.4099
22.1585
21.4296
19.7141
19.0988
19.0212
19.0988
19.7141
21.4296
22.1585
16.5717
16.5842
16.5725
16.5842
16.5717
14.7847
14.7792
14.7686
14.7792
14.7847
13.4495
13.3915
13.3666
13.3915
13.4495
12.0111
11.9752
11.9574
11.9752
12.0111
10.5772
10.5601
10.5507
10.5601
10.5772
9.15613
9.14876
9.1445
9.14876
9.15613
7.74279
7.7398
7.73802
7.7398
7.74279
6.33316
6.33199
6.33128
6.33199
6.33316
4.92512
4.92467
4.9244
4.92467
4.92512
3.51772
3.51755
3.51745
3.51755
3.51772
2.11057
2.11051
2.11048
2.11051
2.11057
0.703517
0.703502
0.703493
0.703502
0.703517
32.4982
32.3787
32.4556
32.4583
32.4599
32.4583
32.4556
32.3787
32.4982
32.4871
32.3759
32.4336
32.407
32.39
32.407
32.4336
32.3759
32.4871
32.2276
32.2676
32.2896
32.2689
32.2528
32.2689
32.2896
32.2676
32.2276
32.1166
32.1235
32.121
32.1029
32.092
32.1029
32.121
32.1235
32.1166
31.9744
31.9629
31.9491
31.9329
31.9255
31.9329
31.9491
31.9629
31.9744
31.7962
31.7864
31.7735
31.7614
31.7564
31.7614
31.7735
31.7864
31.7962
31.612
31.6056
31.5965
31.5884
31.5852
31.5884
31.5965
31.6056
31.612
31.429
31.4251
31.4193
31.4143
31.4123
31.4143
31.4193
31.4251
31.429
31.2481
31.2458
31.2423
31.2393
31.2381
31.2393
31.2423
31.2458
31.2481
31.0689
31.0676
31.0656
31.0638
31.0631
31.0638
31.0656
31.0676
31.0689
30.8907
30.8901
30.8891
30.8881
30.8877
30.8881
30.8891
30.8901
30.8907
30.7128
30.7128
30.7128
30.7125
30.7122
30.7125
30.7128
30.7128
30.7128
30.534
30.535
30.5365
30.5376
30.5376
30.5376
30.5365
30.535
30.534
30.3519
30.3543
30.3593
30.3651
30.3673
30.3651
30.3593
30.3543
30.3519
30.1599
30.1648
30.1773
30.1966
30.2099
30.1966
30.1773
30.1648
30.1599
29.9444
29.9528
29.9774
30.0245
30.0683
30.0245
29.9774
29.9528
29.9444
29.6876
29.6992
29.7381
29.8374
30.0529
29.8374
29.7381
29.6992
29.6876
29.3776
29.3879
29.43
29.5397
29.7631
29.5397
29.43
29.3879
29.3776
29.011
29.0187
29.048
29.1124
29.1995
29.1124
29.048
29.0187
29.011
28.6113
28.6163
28.6333
28.6648
28.6949
28.6648
28.6333
28.6163
28.6113
28.1954
28.1986
28.208
28.2237
28.2362
28.2237
28.208
28.1986
28.1954
27.771
27.7728
27.7777
27.7852
27.7902
27.7852
27.7777
27.7728
27.771
27.3417
27.3427
27.3451
27.3485
27.3505
27.3485
27.3451
27.3427
27.3417
26.9095
26.9101
26.9115
26.9131
26.914
26.9131
26.9115
26.9101
26.9095
26.4748
26.4758
26.4773
26.4788
26.4795
26.4788
26.4773
26.4758
26.4748
26.0363
26.0389
26.0425
26.0458
26.0472
26.0458
26.0425
26.0389
26.0363
25.5901
25.5971
25.6064
25.6148
25.6182
25.6148
25.6064
25.5971
25.5901
25.1277
25.1446
25.1672
25.1871
25.1948
25.1871
25.1672
25.1446
25.1277
24.6332
24.668
24.7189
24.7597
24.7746
24.7597
24.7189
24.668
24.6332
24.0868
24.1353
24.223
24.279
24.2964
24.279
24.223
24.1353
24.0868
23.5033
23.5292
23.5838
23.5881
23.5813
23.5881
23.5838
23.5292
23.5033
22.9732
22.9263
22.8078
22.6449
22.5809
22.6449
22.8078
22.9263
22.9732
22.5899
22.4082
22.0376
21.6536
21.533
21.6536
22.0376
22.4082
22.5899
22.3952
22.0659
21.4296
20.9511
20.8327
20.9511
21.4296
22.0659
22.3952
32.5868
32.4982
32.5752
32.4747
32.5093
32.4747
32.5752
32.4982
32.5868
32.578
32.4871
32.5711
32.4397
32.4324
32.4397
32.5711
32.4871
32.578
32.1164
32.2276
32.3007
32.2937
32.275
32.2937
32.3007
32.2276
32.1164
32.088
32.1166
32.1335
32.1185
32.1049
32.1185
32.1335
32.1166
32.088
31.983
31.9744
31.963
31.9436
31.9343
31.9436
31.963
31.9744
31.983
31.8062
31.7962
31.7826
31.7685
31.7626
31.7685
31.7826
31.7962
31.8062
31.6189
31.612
31.6021
31.5931
31.5894
31.5931
31.6021
31.612
31.6189
31.4332
31.429
31.4227
31.4172
31.415
31.4172
31.4227
31.429
31.4332
31.2506
31.2481
31.2443
31.241
31.2397
31.241
31.2443
31.2481
31.2506
31.0703
31.0689
31.0667
31.0647
31.0639
31.0647
31.0667
31.0689
31.0703
30.8913
30.8907
30.8895
30.8884
30.8878
30.8884
30.8896
30.8907
30.8913
30.7127
30.7128
30.7127
30.7122
30.7115
30.7122
30.7127
30.7128
30.7127
30.5327
30.534
30.5361
30.5372
30.5361
30.5372
30.5361
30.534
30.5327
30.3477
30.3519
30.3595
30.3667
30.3659
30.3667
30.3595
30.3519
30.3477
30.1503
30.1599
30.1807
30.2091
30.2199
30.2091
30.1807
30.1599
30.1503
29.9275
29.9444
29.9858
30.0584
30.0898
30.0584
29.9858
29.9444
29.9275
29.6641
29.6876
29.7517
29.9159
30.2741
29.9159
29.7517
29.6876
29.6641
29.3515
29.3776
29.4569
29.668
30.3027
29.668
29.4569
29.3776
29.3515
28.9911
29.011
29.0662
29.1845
29.383
29.1845
29.0662
29.011
28.9911
28.5986
28.6113
28.6427
28.6973
28.7548
28.6973
28.6427
28.6113
28.5986
28.1879
28.1954
28.2128
28.24
28.2654
28.24
28.2128
28.1954
28.1879
27.7667
27.771
27.7801
27.7927
27.8019
27.7927
27.7801
27.771
27.7667
27.3394
27.3417
27.3463
27.352
27.3553
27.352
27.3463
27.3417
27.3394
26.908
26.9095
26.9121
26.9149
26.9163
26.9149
26.9121
26.9095
26.908
26.4732
26.4748
26.4773
26.4798
26.4808
26.4798
26.4773
26.4748
26.4732
26.0331
26.0363
26.0411
26.0453
26.0471
26.0453
26.0411
26.0363
26.0331
25.583
25.5901
25.6005
25.6095
25.613
25.6095
25.6005
25.5901
25.583
25.1136
25.1277
25.1482
25.1656
25.1723
25.1656
25.1482
25.1277
25.1136
24.6108
24.6332
24.6662
24.6923
24.7018
24.6923
24.6662
24.6332
24.6108
24.0659
24.0868
24.1162
24.1324
24.1366
24.1324
24.1162
24.0868
24.0659
23.5067
23.5033
23.4828
23.445
23.4267
23.445
23.4828
23.5033
23.5066
23.0162
22.9732
22.8795
22.7635
22.7149
22.7635
22.8795
22.9732
23.0162
22.6779
22.5899
22.4099
22.1919
22.1088
22.192
22.4099
22.5899
22.6779
22.5229
22.3952
22.1585
21.8578
21.7523
21.8578
22.1585
22.3952
22.5229
)
;

boundaryField
{
    injectionXMinus
    {
        type            zeroGradient;
    }
    injectionXPlus
    {
        type            zeroGradient;
    }
    injectionYMinus
    {
        type            zeroGradient;
    }
    injectionYPlus
    {
        type            zeroGradient;
    }
    inletXMinus
    {
        type            zeroGradient;
    }
    inletXPlus
    {
        type            zeroGradient;
    }
    inletYMinus
    {
        type            zeroGradient;
    }
    inletYPlus
    {
        type            zeroGradient;
    }
    outlet
    {
        type            fixedValue;
        value           uniform 0;
    }
    valve
    {
        type            zeroGradient;
    }
    walls
    {
        type            zeroGradient;
    }
}


// ************************************************************************* //
