/*--------------------------------*- C++ -*----------------------------------*\
  =========                 |
  \\      /  F ield         | OpenFOAM: The Open Source CFD Toolbox
   \\    /   O peration     | Website:  https://openfoam.org
    \\  /    A nd           | Version:  6
     \\/     M anipulation  |
\*---------------------------------------------------------------------------*/
FoamFile
{
    version     2.0;
    format      ascii;
    class       volScalarField;
    location    "0";
    object      Phi;
}
// * * * * * * * * * * * * * * * * * * * * * * * * * * * * * * * * * * * * * //

dimensions      [0 2 -1 0 0 0 0];

internalField   nonuniform List<scalar> 
3029
(
5.99923
5.92893
5.87138
5.8044
5.78552
5.8044
5.87138
5.92894
5.99923
5.93983
5.88084
5.83361
5.77715
5.76159
5.77715
5.83361
5.88084
5.93983
5.7984
5.77542
5.74988
5.72631
5.7181
5.72631
5.74988
5.77542
5.7984
5.70293
5.69319
5.68054
5.66966
5.66559
5.66966
5.68054
5.69319
5.70294
5.62696
5.62258
5.61643
5.6112
5.6092
5.6112
5.61644
5.62258
5.62696
5.55975
5.5577
5.55471
5.55215
5.55116
5.55215
5.55471
5.5577
5.55975
5.49662
5.49564
5.49418
5.49292
5.49243
5.49292
5.49418
5.49564
5.49662
5.43546
5.43498
5.43426
5.43364
5.4334
5.43364
5.43426
5.43498
5.43546
5.37524
5.37501
5.37466
5.37436
5.37424
5.37436
5.37466
5.37501
5.37524
5.31549
5.31539
5.31523
5.3151
5.31505
5.3151
5.31523
5.31539
5.31549
5.25594
5.25592
5.25589
5.25587
5.25587
5.25587
5.25589
5.25592
5.25594
5.19644
5.19649
5.19659
5.19671
5.19677
5.19671
5.19659
5.19649
5.19644
5.13684
5.13701
5.13733
5.13773
5.13795
5.13773
5.13733
5.13701
5.13684
5.07691
5.07729
5.0781
5.07919
5.0799
5.07919
5.0781
5.07729
5.07691
5.01623
5.017
5.01884
5.02176
5.02426
5.02176
5.01884
5.017
5.01623
4.954
4.95539
4.95919
4.96673
4.97693
4.96673
4.95919
4.95539
4.954
4.88897
4.89103
4.89746
4.91455
4.96201
4.91455
4.89746
4.89103
4.88897
4.81983
4.82189
4.82832
4.84541
4.89287
4.84541
4.82832
4.82189
4.81983
4.74657
4.74797
4.75178
4.75932
4.76953
4.75932
4.75178
4.74797
4.74657
4.67051
4.6713
4.67316
4.67609
4.6786
4.67609
4.67316
4.6713
4.67051
4.59287
4.59328
4.59413
4.59525
4.59596
4.59525
4.59413
4.59328
4.59287
4.51443
4.51465
4.51505
4.51551
4.51575
4.51551
4.51505
4.51465
4.51443
4.43557
4.43571
4.43595
4.43619
4.4363
4.43619
4.43595
4.43571
4.43557
4.35642
4.35657
4.35681
4.35702
4.35711
4.35702
4.35681
4.35657
4.35642
4.27698
4.2772
4.27755
4.27786
4.27798
4.27786
4.27755
4.2772
4.27698
4.19709
4.19747
4.19805
4.19856
4.19876
4.19856
4.19805
4.19747
4.19709
4.11643
4.11707
4.11807
4.11892
4.11926
4.11892
4.11807
4.11707
4.11643
4.03448
4.03551
4.0371
4.03846
4.03898
4.03846
4.0371
4.03551
4.03448
3.95049
3.95189
3.95416
3.95602
3.95671
3.95602
3.95416
3.95189
3.95049
3.86367
3.86496
3.86732
3.86903
3.86961
3.86903
3.86732
3.86496
3.86367
3.77428
3.77352
3.77323
3.77235
3.77187
3.77235
3.77323
3.77352
3.77428
3.68642
3.67933
3.66877
3.65977
3.65635
3.65977
3.66877
3.67933
3.68642
3.61274
3.59701
3.57179
3.5521
3.54496
3.5521
3.57179
3.59701
3.61274
3.57054
3.54944
3.51564
3.49017
3.48108
3.49017
3.51564
3.54944
3.57054
5.92893
5.86429
5.81858
5.78354
5.77167
5.78354
5.81859
5.86429
5.92894
5.88084
5.8264
5.78881
5.75985
5.75004
5.75985
5.78881
5.8264
5.88084
5.77542
5.75479
5.73351
5.71677
5.71072
5.71677
5.73351
5.75479
5.77542
5.69319
5.68447
5.67352
5.66464
5.66132
5.66464
5.67352
5.68447
5.69319
5.62258
5.61862
5.61314
5.60857
5.60683
5.60858
5.61314
5.61862
5.62258
5.5577
5.55582
5.55309
5.55077
5.54988
5.55077
5.55309
5.55582
5.5577
5.49564
5.49473
5.49337
5.49219
5.49174
5.49219
5.49337
5.49473
5.49564
5.43498
5.43453
5.43385
5.43326
5.43303
5.43326
5.43385
5.43453
5.43498
5.37501
5.37479
5.37445
5.37416
5.37404
5.37416
5.37445
5.37479
5.37501
5.31539
5.31528
5.31512
5.31499
5.31493
5.31499
5.31512
5.31528
5.31539
5.25592
5.25588
5.25582
5.25579
5.25577
5.25579
5.25583
5.25588
5.25592
5.19649
5.1965
5.19654
5.1966
5.19663
5.1966
5.19654
5.1965
5.19649
5.13701
5.13707
5.13724
5.13747
5.1376
5.13747
5.13724
5.13707
5.13701
5.07729
5.07744
5.07785
5.07848
5.07888
5.07848
5.07785
5.07744
5.07729
5.017
5.01725
5.01817
5.01976
5.02098
5.01976
5.01817
5.01726
5.017
4.95539
4.95575
4.95753
4.9612
4.96492
4.96121
4.95753
4.95575
4.95539
4.89103
4.89142
4.89421
4.90113
4.91113
4.90113
4.89421
4.89142
4.89103
4.82189
4.82228
4.82508
4.832
4.842
4.832
4.82508
4.82228
4.82189
4.74797
4.74834
4.75012
4.75381
4.75752
4.75381
4.75012
4.74834
4.74798
4.6713
4.67156
4.67249
4.6741
4.67533
4.6741
4.67249
4.67156
4.6713
4.59328
4.59345
4.5939
4.59457
4.59498
4.59457
4.5939
4.59345
4.59328
4.51465
4.51476
4.515
4.5153
4.51545
4.5153
4.515
4.51476
4.51465
4.43571
4.43582
4.436
4.43618
4.43627
4.43618
4.436
4.43582
4.43571
4.35657
4.35672
4.35694
4.35715
4.35724
4.35715
4.35694
4.35672
4.35657
4.2772
4.27745
4.27783
4.27817
4.2783
4.27817
4.27783
4.27745
4.2772
4.19747
4.19792
4.19861
4.19922
4.19945
4.19922
4.19861
4.19792
4.19747
4.11707
4.1179
4.11918
4.12028
4.12071
4.12028
4.11918
4.1179
4.11707
4.03551
4.03698
4.03931
4.04126
4.042
4.04126
4.03931
4.03698
4.03551
3.95189
3.95436
3.95847
3.96173
3.96291
3.96173
3.95847
3.95435
3.95189
3.86496
3.86841
3.87521
3.87988
3.88142
3.87988
3.87521
3.86841
3.86496
3.77352
3.77579
3.78418
3.78783
3.78869
3.78783
3.78418
3.77579
3.77352
3.67933
3.67094
3.65972
3.6493
3.64536
3.6493
3.65972
3.67094
3.67933
3.59701
3.57173
3.52542
3.49384
3.48314
3.49384
3.52542
3.57173
3.59701
3.54944
3.51458
3.45114
3.41185
3.39903
3.41185
3.45114
3.51458
3.54944
5.87138
5.81859
5.7849
5.76321
5.75573
5.76321
5.7849
5.81859
5.87138
5.83361
5.78881
5.76091
5.74281
5.73654
5.74281
5.76091
5.78881
5.83361
5.74988
5.73351
5.71731
5.70556
5.70131
5.70556
5.71731
5.73351
5.74988
5.68054
5.67352
5.66483
5.65802
5.65548
5.65802
5.66483
5.67352
5.68054
5.61643
5.61314
5.6086
5.60486
5.60344
5.60486
5.6086
5.61314
5.61644
5.55471
5.55309
5.55074
5.54875
5.54798
5.54875
5.55074
5.55309
5.55471
5.49418
5.49337
5.49215
5.49111
5.49071
5.49111
5.49215
5.49337
5.49418
5.43426
5.43385
5.43323
5.43269
5.43247
5.43269
5.43323
5.43385
5.43426
5.37466
5.37445
5.37413
5.37385
5.37375
5.37385
5.37413
5.37445
5.37467
5.31523
5.31512
5.31496
5.31481
5.31476
5.31482
5.31496
5.31512
5.31523
5.25589
5.25582
5.25574
5.25566
5.25564
5.25567
5.25574
5.25583
5.25589
5.19659
5.19654
5.19648
5.19645
5.19644
5.19645
5.19648
5.19654
5.19659
5.13733
5.13724
5.13716
5.13716
5.13719
5.13716
5.13716
5.13724
5.13734
5.0781
5.07785
5.07769
5.07775
5.07785
5.07775
5.07769
5.07785
5.0781
5.01884
5.01817
5.01777
5.01797
5.01828
5.01797
5.01777
5.01817
5.01884
4.95919
4.95753
4.95664
4.95717
4.95805
4.95717
4.95664
4.95753
4.95919
4.89746
4.89421
4.89266
4.89369
4.89562
4.89369
4.89266
4.89421
4.89746
4.82832
4.82508
4.82353
4.82456
4.82649
4.82456
4.82353
4.82508
4.82832
4.75178
4.75012
4.74924
4.74978
4.75067
4.74978
4.74924
4.75012
4.75178
4.67316
4.67249
4.67211
4.67233
4.67265
4.67233
4.67211
4.67249
4.67316
4.59413
4.5939
4.59378
4.59387
4.59398
4.59387
4.59378
4.5939
4.59413
4.51505
4.515
4.515
4.51507
4.51512
4.51507
4.515
4.515
4.51505
4.43595
4.436
4.43609
4.4362
4.43624
4.4362
4.43609
4.436
4.43595
4.35681
4.35694
4.35716
4.35735
4.35743
4.35735
4.35716
4.35694
4.35681
4.27755
4.27783
4.27826
4.27864
4.27879
4.27864
4.27826
4.27783
4.27755
4.19805
4.19861
4.19947
4.20022
4.20052
4.20022
4.19947
4.19861
4.19805
4.11807
4.11918
4.12092
4.12239
4.12296
4.12239
4.12092
4.11918
4.11807
4.0371
4.03931
4.04287
4.04579
4.04689
4.04579
4.04287
4.03931
4.0371
3.95416
3.95847
3.96607
3.97183
3.97387
3.97183
3.96607
3.95847
3.95416
3.86732
3.87521
3.89298
3.90403
3.90758
3.90403
3.89297
3.87521
3.86732
3.77323
3.78418
3.8333
3.85258
3.85781
3.85258
3.8333
3.78418
3.77323
3.66877
3.65972
3.65972
3.66877
3.57179
3.52542
3.4043
3.34121
3.32184
3.34121
3.4043
3.52542
3.57179
3.51564
3.45114
3.28823
3.22509
3.2072
3.22509
3.28823
3.45114
3.51563
2.97264
2.95249
2.94405
2.95249
2.97264
2.69732
2.69081
2.68754
2.69081
2.69732
2.43503
2.43291
2.43174
2.43291
2.43503
2.17697
2.17628
2.17588
2.17628
2.17697
1.9203
1.92007
1.91994
1.92007
1.9203
1.66408
1.66401
1.66396
1.66401
1.66408
1.40801
1.40799
1.40798
1.40799
1.40801
1.15199
1.15199
1.15198
1.15199
1.15199
0.895991
0.895988
0.895987
0.895988
0.895991
0.639992
0.639991
0.639991
0.639991
0.639992
0.383995
0.383995
0.383994
0.383995
0.383995
0.127998
0.127998
0.127998
0.127998
0.127998
5.8044
5.78354
5.76321
5.74906
5.74403
5.74906
5.76321
5.78354
5.8044
5.77715
5.75985
5.74281
5.7308
5.72651
5.7308
5.74281
5.75985
5.77716
5.72631
5.71677
5.70556
5.69712
5.69402
5.69712
5.70556
5.71677
5.72631
5.66966
5.66464
5.65802
5.65275
5.65077
5.65275
5.65802
5.66464
5.66966
5.6112
5.60858
5.60486
5.60179
5.60061
5.60179
5.60486
5.60858
5.6112
5.55215
5.55077
5.54875
5.54704
5.54637
5.54704
5.54875
5.55077
5.55215
5.49292
5.49219
5.49111
5.49018
5.48982
5.49018
5.49111
5.4922
5.49292
5.43364
5.43326
5.43269
5.43219
5.43199
5.43219
5.43269
5.43326
5.43364
5.37436
5.37416
5.37385
5.37359
5.37348
5.37359
5.37386
5.37416
5.37436
5.3151
5.31499
5.31481
5.31467
5.31461
5.31467
5.31482
5.31499
5.3151
5.25587
5.25579
5.25567
5.25557
5.25553
5.25557
5.25567
5.25579
5.25587
5.19671
5.1966
5.19645
5.19634
5.1963
5.19634
5.19645
5.1966
5.19671
5.13773
5.13747
5.13716
5.13697
5.13692
5.13697
5.13717
5.13747
5.13773
5.07919
5.07848
5.07775
5.07733
5.07723
5.07734
5.07775
5.07848
5.0792
5.02176
5.01976
5.01797
5.01709
5.01689
5.01709
5.01797
5.01976
5.02176
4.96673
4.9612
4.95717
4.95546
4.95516
4.95546
4.95717
4.96121
4.96673
4.91455
4.90113
4.89369
4.891
4.89065
4.891
4.89369
4.90113
4.91455
4.84541
4.832
4.82456
4.82187
4.82152
4.82187
4.82456
4.832
4.84541
4.75932
4.75381
4.74978
4.74808
4.74778
4.74808
4.74978
4.75381
4.75932
4.67609
4.6741
4.67233
4.67146
4.67128
4.67146
4.67233
4.6741
4.67609
4.59525
4.59457
4.59387
4.59349
4.5934
4.59349
4.59387
4.59457
4.59525
4.51551
4.5153
4.51507
4.51495
4.51492
4.51495
4.51507
4.5153
4.51551
4.43619
4.43618
4.4362
4.43623
4.43625
4.43623
4.4362
4.43618
4.43619
4.35702
4.35715
4.35735
4.35754
4.35761
4.35754
4.35735
4.35715
4.35702
4.27786
4.27817
4.27864
4.27906
4.27923
4.27906
4.27864
4.27817
4.27786
4.19856
4.19922
4.20022
4.2011
4.20143
4.2011
4.20022
4.19922
4.19856
4.11892
4.12028
4.12239
4.12419
4.12488
4.12419
4.12239
4.12028
4.11892
4.03846
4.04126
4.04579
4.04951
4.0509
4.04951
4.04579
4.04126
4.03845
3.95602
3.96173
3.97183
3.97949
3.9822
3.97949
3.97183
3.96173
3.95602
3.86903
3.87987
3.90403
3.91935
3.9243
3.91935
3.90403
3.87987
3.86903
3.77235
3.78783
3.85258
3.87995
3.88761
3.87995
3.85258
3.78783
3.77235
3.65977
3.6493
3.6493
3.65977
3.5521
3.49384
3.34121
3.26097
3.23643
3.26097
3.34121
3.49384
3.5521
3.49017
3.41185
3.22509
3.14955
3.12814
3.14955
3.22509
3.41185
3.49017
2.95249
2.92989
2.92049
2.92989
2.95249
2.69081
2.6838
2.68029
2.6838
2.69081
2.43291
2.43068
2.42946
2.43068
2.43291
2.17628
2.17556
2.17515
2.17556
2.17628
1.92007
1.91984
1.9197
1.91984
1.92007
1.66401
1.66393
1.66389
1.66393
1.66401
1.40799
1.40797
1.40795
1.40797
1.40799
1.15199
1.15198
1.15197
1.15198
1.15199
0.895988
0.895986
0.895984
0.895986
0.895988
0.639991
0.63999
0.63999
0.63999
0.639991
0.383995
0.383994
0.383994
0.383994
0.383995
0.127998
0.127998
0.127998
0.127998
0.127998
5.78552
5.77168
5.75573
5.74403
5.7398
5.74403
5.75573
5.77168
5.78552
5.76159
5.75004
5.73654
5.72651
5.72286
5.72651
5.73654
5.75004
5.76159
5.7181
5.71072
5.70131
5.69402
5.69132
5.69402
5.70131
5.71072
5.7181
5.66559
5.66132
5.65548
5.65077
5.64899
5.65077
5.65548
5.66132
5.66559
5.6092
5.60683
5.60344
5.60061
5.59953
5.60061
5.60344
5.60683
5.6092
5.55116
5.54988
5.54798
5.54637
5.54575
5.54637
5.54798
5.54988
5.55116
5.49243
5.49174
5.49071
5.48982
5.48947
5.48982
5.49071
5.49174
5.49243
5.4334
5.43303
5.43247
5.43199
5.4318
5.43199
5.43247
5.43303
5.4334
5.37424
5.37404
5.37375
5.37348
5.37338
5.37348
5.37375
5.37405
5.37424
5.31505
5.31493
5.31476
5.31461
5.31455
5.31461
5.31476
5.31493
5.31505
5.25587
5.25577
5.25564
5.25553
5.25549
5.25553
5.25564
5.25577
5.25587
5.19677
5.19663
5.19644
5.1963
5.19625
5.1963
5.19644
5.19663
5.19678
5.13795
5.1376
5.13719
5.13692
5.13683
5.13692
5.13719
5.1376
5.13795
5.0799
5.07888
5.07785
5.07723
5.07704
5.07723
5.07785
5.07888
5.0799
5.02426
5.02098
5.01828
5.01689
5.01651
5.01689
5.01828
5.02098
5.02426
4.97693
4.96492
4.95805
4.95516
4.95446
4.95516
4.95805
4.96492
4.97693
4.96201
4.91113
4.89562
4.89065
4.88958
4.89065
4.89562
4.91113
4.96201
4.89287
4.842
4.82649
4.82152
4.82046
4.82152
4.82649
4.842
4.89287
4.76953
4.75752
4.75067
4.74778
4.74708
4.74778
4.75067
4.75752
4.76953
4.6786
4.67533
4.67265
4.67128
4.6709
4.67128
4.67265
4.67533
4.6786
4.59596
4.59498
4.59398
4.5934
4.59323
4.5934
4.59398
4.59498
4.59596
4.51575
4.51545
4.51512
4.51492
4.51486
4.51492
4.51512
4.51545
4.51575
4.4363
4.43627
4.43624
4.43625
4.43626
4.43625
4.43624
4.43627
4.4363
4.35711
4.35723
4.35743
4.35761
4.35768
4.35761
4.35743
4.35724
4.35711
4.27798
4.2783
4.27879
4.27923
4.2794
4.27923
4.27879
4.2783
4.27798
4.19876
4.19945
4.20051
4.20143
4.20179
4.20143
4.20051
4.19945
4.19876
4.11926
4.12071
4.12296
4.12488
4.12562
4.12488
4.12296
4.12071
4.11926
4.03897
4.042
4.04689
4.0509
4.05239
4.0509
4.04689
4.042
4.03897
3.95671
3.96291
3.97387
3.9822
3.98515
3.9822
3.97387
3.96291
3.95671
3.86961
3.88142
3.90758
3.9243
3.92973
3.9243
3.90758
3.88142
3.86961
3.77187
3.78868
3.85781
3.88761
3.89603
3.88761
3.85781
3.78868
3.77187
3.65634
3.64536
3.64536
3.65634
3.54495
3.48314
3.32184
3.23643
3.21026
3.23643
3.32184
3.48314
3.54495
3.48108
3.39903
3.2072
3.12814
3.10559
3.12814
3.2072
3.39903
3.48108
2.94405
2.92049
2.91071
2.92049
2.94405
2.68754
2.68029
2.67668
2.68029
2.68754
2.43174
2.42946
2.42821
2.42946
2.43174
2.17588
2.17515
2.17473
2.17515
2.17588
1.91994
1.9197
1.91956
1.9197
1.91994
1.66396
1.66389
1.66384
1.66389
1.66396
1.40798
1.40795
1.40794
1.40795
1.40798
1.15198
1.15197
1.15197
1.15197
1.15198
0.895987
0.895984
0.895982
0.895984
0.895987
0.639991
0.63999
0.639989
0.63999
0.639991
0.383994
0.383994
0.383994
0.383994
0.383994
0.127998
0.127998
0.127998
0.127998
0.127998
5.8044
5.78354
5.76321
5.74906
5.74403
5.74906
5.76321
5.78355
5.8044
5.77715
5.75985
5.74281
5.7308
5.72651
5.7308
5.74281
5.75986
5.77716
5.72631
5.71677
5.70556
5.69712
5.69402
5.69712
5.70556
5.71677
5.72631
5.66966
5.66464
5.65802
5.65275
5.65077
5.65275
5.65802
5.66464
5.66966
5.6112
5.60858
5.60486
5.60179
5.60061
5.60179
5.60486
5.60858
5.6112
5.55215
5.55077
5.54875
5.54704
5.54637
5.54704
5.54875
5.55077
5.55216
5.49292
5.4922
5.49111
5.49018
5.48982
5.49018
5.49111
5.4922
5.49292
5.43364
5.43326
5.43269
5.43219
5.43199
5.43219
5.43269
5.43326
5.43364
5.37436
5.37416
5.37385
5.37359
5.37348
5.37359
5.37386
5.37416
5.37436
5.3151
5.31499
5.31482
5.31467
5.31461
5.31467
5.31482
5.31499
5.3151
5.25587
5.25579
5.25567
5.25557
5.25553
5.25557
5.25567
5.25579
5.25587
5.19671
5.1966
5.19645
5.19634
5.1963
5.19634
5.19645
5.1966
5.19671
5.13773
5.13747
5.13716
5.13697
5.13692
5.13697
5.13717
5.13747
5.13773
5.07919
5.07848
5.07775
5.07734
5.07723
5.07734
5.07775
5.07848
5.0792
5.02176
5.01976
5.01797
5.01709
5.01689
5.01709
5.01797
5.01976
5.02176
4.96673
4.96121
4.95717
4.95546
4.95516
4.95546
4.95717
4.96121
4.96673
4.91455
4.90113
4.89369
4.891
4.89065
4.891
4.89369
4.90113
4.91455
4.84541
4.832
4.82456
4.82187
4.82152
4.82187
4.82456
4.832
4.84541
4.75932
4.75381
4.74978
4.74808
4.74778
4.74808
4.74978
4.75381
4.75932
4.67609
4.6741
4.67233
4.67146
4.67128
4.67146
4.67233
4.6741
4.67609
4.59525
4.59457
4.59387
4.59349
4.5934
4.59349
4.59387
4.59457
4.59525
4.51551
4.5153
4.51507
4.51495
4.51492
4.51495
4.51507
4.5153
4.51551
4.43619
4.43618
4.4362
4.43623
4.43625
4.43623
4.4362
4.43618
4.43619
4.35702
4.35715
4.35735
4.35754
4.35761
4.35754
4.35735
4.35715
4.35702
4.27786
4.27817
4.27864
4.27906
4.27923
4.27906
4.27864
4.27817
4.27786
4.19856
4.19922
4.20022
4.20109
4.20143
4.20109
4.20022
4.19922
4.19856
4.11892
4.12028
4.12239
4.12419
4.12488
4.12419
4.12239
4.12028
4.11892
4.03845
4.04126
4.04579
4.04951
4.0509
4.04951
4.04579
4.04126
4.03845
3.95602
3.96173
3.97183
3.97949
3.9822
3.97949
3.97183
3.96173
3.95602
3.86903
3.87987
3.90403
3.91935
3.9243
3.91935
3.90403
3.87987
3.86903
3.77235
3.78783
3.85258
3.87995
3.88761
3.87995
3.85258
3.78783
3.77234
3.65977
3.6493
3.6493
3.65977
3.5521
3.49384
3.34121
3.26097
3.23643
3.26097
3.34121
3.49384
3.5521
3.49017
3.41185
3.22509
3.14955
3.12814
3.14955
3.22509
3.41185
3.49017
2.95249
2.92989
2.92049
2.92989
2.95249
2.69081
2.6838
2.68029
2.6838
2.69081
2.43291
2.43068
2.42946
2.43068
2.43291
2.17628
2.17556
2.17515
2.17556
2.17628
1.92007
1.91984
1.9197
1.91984
1.92007
1.66401
1.66393
1.66389
1.66393
1.66401
1.40799
1.40797
1.40795
1.40797
1.40799
1.15199
1.15198
1.15197
1.15198
1.15199
0.895988
0.895986
0.895984
0.895986
0.895988
0.639991
0.63999
0.63999
0.63999
0.639991
0.383995
0.383994
0.383994
0.383994
0.383995
0.127998
0.127998
0.127998
0.127998
0.127998
5.87138
5.81859
5.7849
5.76321
5.75573
5.76321
5.7849
5.81859
5.87138
5.83361
5.78881
5.76091
5.74281
5.73654
5.74281
5.76091
5.78881
5.83361
5.74988
5.73351
5.71731
5.70556
5.70131
5.70556
5.71731
5.73351
5.74988
5.68054
5.67352
5.66483
5.65802
5.65548
5.65802
5.66483
5.67352
5.68054
5.61644
5.61314
5.6086
5.60486
5.60344
5.60486
5.6086
5.61314
5.61644
5.55471
5.55309
5.55074
5.54875
5.54798
5.54875
5.55074
5.55309
5.55471
5.49418
5.49337
5.49215
5.49111
5.49071
5.49111
5.49215
5.49337
5.49418
5.43426
5.43385
5.43323
5.43269
5.43247
5.43269
5.43323
5.43385
5.43426
5.37467
5.37445
5.37413
5.37386
5.37375
5.37386
5.37413
5.37445
5.37467
5.31523
5.31512
5.31496
5.31482
5.31476
5.31482
5.31496
5.31512
5.31523
5.25589
5.25583
5.25574
5.25567
5.25564
5.25567
5.25574
5.25583
5.25589
5.19659
5.19654
5.19648
5.19645
5.19644
5.19645
5.19648
5.19654
5.19659
5.13734
5.13724
5.13716
5.13717
5.13719
5.13717
5.13716
5.13724
5.13734
5.0781
5.07785
5.07769
5.07775
5.07785
5.07775
5.07769
5.07785
5.0781
5.01884
5.01817
5.01777
5.01797
5.01828
5.01797
5.01777
5.01817
5.01885
4.95919
4.95753
4.95664
4.95717
4.95805
4.95717
4.95664
4.95753
4.95919
4.89746
4.89421
4.89266
4.89369
4.89562
4.89369
4.89266
4.89421
4.89746
4.82832
4.82508
4.82353
4.82456
4.82649
4.82456
4.82353
4.82508
4.82832
4.75178
4.75012
4.74924
4.74978
4.75067
4.74978
4.74924
4.75012
4.75178
4.67316
4.67249
4.67211
4.67233
4.67265
4.67233
4.67211
4.67249
4.67316
4.59413
4.5939
4.59378
4.59387
4.59398
4.59387
4.59378
4.5939
4.59413
4.51505
4.515
4.515
4.51507
4.51512
4.51507
4.515
4.515
4.51505
4.43595
4.436
4.43609
4.4362
4.43624
4.4362
4.43609
4.436
4.43595
4.35681
4.35694
4.35716
4.35735
4.35743
4.35735
4.35716
4.35694
4.35681
4.27755
4.27783
4.27826
4.27864
4.27879
4.27864
4.27826
4.27783
4.27755
4.19805
4.19861
4.19947
4.20022
4.20051
4.20022
4.19947
4.19861
4.19805
4.11807
4.11918
4.12091
4.12239
4.12296
4.12239
4.12091
4.11918
4.11807
4.0371
4.03931
4.04286
4.04579
4.04689
4.04579
4.04286
4.03931
4.0371
3.95416
3.95847
3.96607
3.97183
3.97387
3.97183
3.96607
3.95847
3.95416
3.86732
3.8752
3.89297
3.90403
3.90758
3.90403
3.89297
3.8752
3.86732
3.77323
3.78418
3.8333
3.85258
3.85781
3.85258
3.8333
3.78418
3.77322
3.66877
3.65972
3.65972
3.66877
3.57179
3.52542
3.4043
3.34121
3.32184
3.34121
3.4043
3.52542
3.57179
3.51563
3.45114
3.28823
3.22509
3.2072
3.22509
3.28823
3.45114
3.51563
2.97264
2.95249
2.94404
2.95249
2.97264
2.69732
2.69081
2.68754
2.69081
2.69732
2.43503
2.43291
2.43174
2.43291
2.43503
2.17697
2.17628
2.17588
2.17628
2.17697
1.9203
1.92007
1.91994
1.92007
1.9203
1.66408
1.66401
1.66396
1.66401
1.66408
1.40801
1.40799
1.40798
1.40799
1.40801
1.15199
1.15199
1.15198
1.15199
1.15199
0.895991
0.895988
0.895987
0.895988
0.895991
0.639992
0.639991
0.639991
0.639991
0.639992
0.383995
0.383995
0.383994
0.383995
0.383995
0.127998
0.127998
0.127998
0.127998
0.127998
5.92894
5.86429
5.81859
5.78355
5.77168
5.78355
5.81859
5.86429
5.92894
5.88084
5.8264
5.78881
5.75986
5.75004
5.75986
5.78881
5.8264
5.88084
5.77542
5.75479
5.73351
5.71677
5.71072
5.71677
5.73351
5.75479
5.77542
5.69319
5.68447
5.67352
5.66464
5.66132
5.66464
5.67352
5.68447
5.69319
5.62258
5.61862
5.61314
5.60858
5.60683
5.60858
5.61314
5.61862
5.62258
5.5577
5.55582
5.55309
5.55077
5.54988
5.55078
5.55309
5.55582
5.5577
5.49564
5.49473
5.49337
5.4922
5.49174
5.4922
5.49337
5.49473
5.49564
5.43498
5.43453
5.43385
5.43326
5.43303
5.43326
5.43385
5.43453
5.43498
5.37501
5.37479
5.37445
5.37416
5.37405
5.37416
5.37445
5.37479
5.37501
5.31539
5.31528
5.31512
5.31499
5.31493
5.31499
5.31512
5.31528
5.31539
5.25592
5.25588
5.25583
5.25579
5.25577
5.25579
5.25583
5.25588
5.25592
5.19649
5.1965
5.19654
5.1966
5.19663
5.1966
5.19654
5.1965
5.19649
5.13701
5.13707
5.13724
5.13747
5.1376
5.13747
5.13724
5.13707
5.13701
5.07729
5.07744
5.07785
5.07848
5.07888
5.07848
5.07785
5.07744
5.07729
5.017
5.01726
5.01817
5.01976
5.02098
5.01976
5.01817
5.01726
5.017
4.95539
4.95575
4.95753
4.96121
4.96492
4.96121
4.95753
4.95575
4.95539
4.89103
4.89142
4.89421
4.90113
4.91113
4.90113
4.89421
4.89142
4.89103
4.82189
4.82228
4.82508
4.832
4.842
4.832
4.82508
4.82228
4.82189
4.74797
4.74834
4.75012
4.75381
4.75752
4.75381
4.75012
4.74834
4.74797
4.6713
4.67156
4.67249
4.6741
4.67533
4.6741
4.67249
4.67156
4.6713
4.59328
4.59345
4.5939
4.59457
4.59498
4.59457
4.5939
4.59345
4.59328
4.51465
4.51476
4.515
4.5153
4.51545
4.5153
4.515
4.51476
4.51465
4.43571
4.43582
4.436
4.43618
4.43627
4.43618
4.436
4.43582
4.43571
4.35657
4.35672
4.35694
4.35715
4.35723
4.35715
4.35694
4.35672
4.35657
4.2772
4.27745
4.27783
4.27817
4.2783
4.27817
4.27783
4.27745
4.2772
4.19747
4.19792
4.19861
4.19922
4.19945
4.19922
4.19861
4.19792
4.19747
4.11707
4.1179
4.11918
4.12028
4.1207
4.12028
4.11918
4.1179
4.11707
4.03551
4.03698
4.03931
4.04126
4.042
4.04126
4.03931
4.03698
4.03551
3.95189
3.95435
3.95847
3.96173
3.96291
3.96173
3.95847
3.95435
3.95189
3.86496
3.86841
3.8752
3.87987
3.88142
3.87987
3.8752
3.86841
3.86496
3.77352
3.77579
3.78418
3.78783
3.78868
3.78783
3.78418
3.77579
3.77352
3.67933
3.67094
3.65972
3.6493
3.64535
3.6493
3.65972
3.67094
3.67933
3.59701
3.57173
3.52542
3.49384
3.48314
3.49384
3.52542
3.57173
3.59701
3.54944
3.51458
3.45114
3.41185
3.39903
3.41185
3.45114
3.51458
3.54944
5.99923
5.92894
5.87138
5.8044
5.78552
5.8044
5.87138
5.92894
5.99923
5.93983
5.88084
5.83361
5.77716
5.76159
5.77716
5.83361
5.88084
5.93983
5.7984
5.77542
5.74988
5.72631
5.7181
5.72631
5.74988
5.77542
5.7984
5.70294
5.69319
5.68054
5.66966
5.66559
5.66966
5.68054
5.69319
5.70294
5.62696
5.62258
5.61644
5.6112
5.6092
5.6112
5.61644
5.62258
5.62696
5.55975
5.5577
5.55471
5.55216
5.55116
5.55216
5.55471
5.5577
5.55975
5.49662
5.49564
5.49418
5.49292
5.49243
5.49292
5.49418
5.49564
5.49662
5.43546
5.43498
5.43426
5.43364
5.4334
5.43364
5.43426
5.43498
5.43546
5.37524
5.37501
5.37467
5.37436
5.37424
5.37436
5.37467
5.37501
5.37524
5.31549
5.31539
5.31523
5.3151
5.31505
5.3151
5.31523
5.31539
5.31549
5.25594
5.25592
5.25589
5.25587
5.25587
5.25587
5.25589
5.25592
5.25594
5.19644
5.19649
5.19659
5.19671
5.19678
5.19671
5.19659
5.19649
5.19644
5.13684
5.13701
5.13734
5.13773
5.13795
5.13773
5.13734
5.13701
5.13684
5.07691
5.07729
5.0781
5.0792
5.0799
5.0792
5.0781
5.07729
5.07692
5.01623
5.017
5.01884
5.02176
5.02426
5.02176
5.01885
5.017
5.01623
4.954
4.95539
4.95919
4.96673
4.97693
4.96673
4.95919
4.95539
4.954
4.88897
4.89103
4.89746
4.91455
4.96201
4.91455
4.89746
4.89103
4.88897
4.81983
4.82189
4.82832
4.84541
4.89287
4.84541
4.82832
4.82189
4.81983
4.74657
4.74797
4.75178
4.75932
4.76953
4.75932
4.75178
4.74797
4.74657
4.67051
4.6713
4.67316
4.67609
4.6786
4.67609
4.67316
4.6713
4.67051
4.59287
4.59328
4.59413
4.59525
4.59596
4.59525
4.59413
4.59328
4.59287
4.51443
4.51465
4.51505
4.51551
4.51575
4.51551
4.51505
4.51465
4.51443
4.43557
4.43571
4.43595
4.43619
4.4363
4.43619
4.43595
4.43571
4.43557
4.35642
4.35657
4.35681
4.35702
4.35711
4.35702
4.35681
4.35657
4.35642
4.27698
4.2772
4.27755
4.27786
4.27798
4.27786
4.27755
4.2772
4.27698
4.19708
4.19747
4.19805
4.19856
4.19876
4.19856
4.19805
4.19747
4.19708
4.11643
4.11707
4.11807
4.11892
4.11926
4.11892
4.11807
4.11707
4.11643
4.03448
4.03551
4.0371
4.03845
4.03897
4.03845
4.0371
4.03551
4.03448
3.95049
3.95189
3.95416
3.95602
3.9567
3.95602
3.95416
3.95189
3.95049
3.86367
3.86496
3.86732
3.86903
3.86961
3.86903
3.86732
3.86496
3.86367
3.77428
3.77352
3.77322
3.77234
3.77187
3.77234
3.77322
3.77352
3.77428
3.68642
3.67933
3.66877
3.65977
3.65634
3.65977
3.66877
3.67933
3.68642
3.61274
3.59701
3.57179
3.5521
3.54495
3.5521
3.57179
3.59701
3.61274
3.57054
3.54944
3.51563
3.49017
3.48108
3.49017
3.51563
3.54944
3.57054
)
;

boundaryField
{
    injectionXMinus
    {
        type            zeroGradient;
    }
    injectionXPlus
    {
        type            zeroGradient;
    }
    injectionYMinus
    {
        type            zeroGradient;
    }
    injectionYPlus
    {
        type            zeroGradient;
    }
    inletXMinus
    {
        type            zeroGradient;
    }
    inletXPlus
    {
        type            zeroGradient;
    }
    inletYMinus
    {
        type            zeroGradient;
    }
    inletYPlus
    {
        type            zeroGradient;
    }
    outlet
    {
        type            fixedValue;
        value           uniform 0;
    }
    valve
    {
        type            zeroGradient;
    }
    walls
    {
        type            zeroGradient;
    }
}


// ************************************************************************* //
