/*--------------------------------*- C++ -*----------------------------------*\
  =========                 |
  \\      /  F ield         | OpenFOAM: The Open Source CFD Toolbox
   \\    /   O peration     | Website:  https://openfoam.org
    \\  /    A nd           | Version:  6
     \\/     M anipulation  |
\*---------------------------------------------------------------------------*/
FoamFile
{
    version     2.0;
    format      ascii;
    class       surfaceScalarField;
    location    "0";
    object      phi;
}
// * * * * * * * * * * * * * * * * * * * * * * * * * * * * * * * * * * * * * //

dimensions      [0 3 -1 0 0 0 0];

internalField   nonuniform List<scalar> 
8239
(
0.000866766
0.00246221
0.00667102
0.00217825
0.00230814
0.00638038
0.00483952
0.00191274
0.00542599
0.00131148
0.00117126
0.00235678
-0.00131148
0.000929937
0.00169303
-0.00483952
0.00117126
0.00235678
-0.00217825
0.00191274
0.00542599
-0.000866766
0.00230814
0.00638038
0.00246221
0.00667102
0.000712692
0.00608478
0.00566474
0.00178285
0.00580793
0.00543005
0.00409803
0.00494588
0.00465168
0.00107016
0.00219585
0.00200328
-0.00107016
0.00161067
0.00145959
-0.00409803
0.00219585
0.00200328
-0.00178285
0.00494588
0.00465168
-0.000712692
0.00580793
0.00543005
0.00608478
0.00566474
0.000435834
0.00336066
0.00228829
0.000920806
0.00315815
0.00216481
0.00134801
0.00267335
0.00184533
0.000484972
0.00183222
0.00122667
-0.000484972
0.00154994
0.00103067
-0.00134801
0.00183222
0.00122667
-0.000920806
0.00267335
0.00184533
-0.000435834
0.00315814
0.00216481
0.00336066
0.00228829
0.000233317
0.00202511
0.00110224
0.000436012
0.00190905
0.0010464
0.000506875
0.00167566
0.000926831
0.000202695
0.00137708
0.000759323
-0.000202695
0.00125973
0.000695597
-0.000506876
0.00137708
0.000759323
-0.000436012
0.00167566
0.000926831
-0.000233317
0.00190905
0.0010464
0.00202511
0.00110224
0.000117263
0.00129366
0.000614185
0.000202614
0.00123352
0.000590184
0.000208297
0.00112496
0.000545012
8.53517e-05
0.00100708
0.00049294
-8.5352e-05
0.00095867
0.000471768
-0.000208297
0.00100708
0.00049294
-0.000202615
0.00112496
0.000545012
-0.000117263
0.00123352
0.000590184
0.00129366
0.000614185
5.71191e-05
0.000858207
0.000378334
9.40588e-05
0.000828475
0.000368102
9.04166e-05
0.000778226
0.000350377
3.69397e-05
0.000728373
0.000332186
-3.694e-05
0.000707855
0.000324694
-9.04169e-05
0.000728373
0.000332186
-9.4059e-05
0.000778226
0.000350377
-5.71191e-05
0.000828475
0.000368102
0.000858207
0.000378334
2.73874e-05
0.000583138
0.000247681
4.38095e-05
0.00056878
0.000243273
4.0563e-05
0.000545453
0.000236019
1.6422e-05
0.000523455
0.000229059
-1.64223e-05
0.000514486
0.000226213
-4.05633e-05
0.000523455
0.000229059
-4.38097e-05
0.000545453
0.000236019
-2.73875e-05
0.00056878
0.000243273
0.000583138
0.000247681
1.30291e-05
0.000402264
0.000167845
2.04828e-05
0.000395412
0.000165914
1.85642e-05
0.00038454
0.000162831
7.45363e-06
0.00037458
0.000159985
-7.45392e-06
0.00037056
0.000158833
-1.85645e-05
0.00037458
0.000159985
-2.0483e-05
0.00038454
0.000162831
-1.30292e-05
0.000395412
0.000165914
0.000402264
0.000167845
6.17732e-06
0.000280158
0.000115928
9.61112e-06
0.000276911
0.000115067
8.60396e-06
0.000271831
0.000113716
3.43378e-06
0.000267255
0.000112495
-3.43405e-06
0.000265422
0.000112006
-8.6042e-06
0.000267255
0.000112495
-9.6113e-06
0.000271831
0.000113716
-6.17738e-06
0.000276911
0.000115067
0.000280158
0.000115928
2.93008e-06
0.000196327
8.09012e-05
4.53106e-06
0.0001948
8.05103e-05
4.02744e-06
0.000192431
7.99034e-05
1.60105e-06
0.000190319
7.93612e-05
-1.6013e-06
0.000189479
7.91451e-05
-4.02767e-06
0.00019032
7.93612e-05
-4.53122e-06
0.000192431
7.99034e-05
-2.93014e-06
0.0001948
8.05103e-05
0.000196327
8.09012e-05
1.40273e-06
0.000138158
5.6766e-05
2.16257e-06
0.000137455
5.65842e-05
1.91584e-06
0.000136374
5.63032e-05
7.60397e-07
0.000135421
5.60534e-05
-7.60632e-07
0.000135046
5.5954e-05
-1.91605e-06
0.000135421
5.60534e-05
-2.16273e-06
0.000136375
5.63032e-05
-1.40279e-06
0.000137455
5.65842e-05
0.000138158
5.6766e-05
6.99974e-07
9.75272e-05
3.99308e-05
1.0817e-06
9.72329e-05
3.98406e-05
9.62763e-07
9.67931e-05
3.97002e-05
3.84762e-07
9.64254e-05
3.95739e-05
-3.84974e-07
9.62928e-05
3.95226e-05
-9.62948e-07
9.64254e-05
3.95739e-05
-1.08183e-06
9.67931e-05
3.97002e-05
-7.0003e-07
9.72329e-05
3.98406e-05
9.75272e-05
3.99308e-05
4.05677e-07
6.90225e-05
2.80989e-05
6.41869e-07
6.89536e-05
2.80429e-05
5.95074e-07
6.88883e-05
2.79515e-05
2.52167e-07
6.8907e-05
2.78611e-05
-2.52354e-07
6.89786e-05
2.78186e-05
-5.95237e-07
6.89071e-05
2.78611e-05
-6.4199e-07
6.88883e-05
2.79515e-05
-4.05733e-07
6.89537e-05
2.80429e-05
6.90226e-05
2.80989e-05
3.36749e-07
4.89471e-05
1.97386e-05
5.76509e-07
4.90318e-05
1.9682e-05
6.13839e-07
4.92759e-05
1.9575e-05
3.23769e-07
4.97573e-05
1.94398e-05
-3.23927e-07
5.02795e-05
1.93468e-05
-6.13978e-07
4.97573e-05
1.94398e-05
-5.76611e-07
4.92759e-05
1.9575e-05
-3.36798e-07
4.90319e-05
1.9682e-05
4.89472e-05
1.97386e-05
4.21451e-07
3.47195e-05
1.38061e-05
8.20552e-07
3.49167e-05
1.3716e-05
1.09527e-06
3.54906e-05
1.35105e-05
8.45962e-07
3.68479e-05
1.31586e-05
-8.46092e-07
3.91933e-05
1.27782e-05
-1.09539e-06
3.6848e-05
1.31586e-05
-8.20638e-07
3.54907e-05
1.35105e-05
-4.21498e-07
3.49168e-05
1.3716e-05
3.47196e-05
1.38061e-05
6.18643e-07
2.45138e-05
9.58707e-06
1.39448e-06
2.47139e-05
9.427e-06
2.45258e-06
2.54505e-05
8.98201e-06
3.19133e-06
2.81877e-05
7.92148e-06
-3.19143e-06
3.96259e-05
5.9502e-06
-2.45267e-06
2.81878e-05
7.92147e-06
-1.39455e-06
2.54506e-05
8.98201e-06
-6.18683e-07
2.47139e-05
9.42701e-06
2.45139e-05
9.58708e-06
8.1874e-07
1.70904e-05
6.60461e-06
2.13114e-06
1.70385e-05
6.36306e-06
5.1898e-06
1.68479e-05
5.54402e-06
1.46295e-05
1.60648e-05
2.6833e-06
-1.46295e-05
1.22593e-05
-8.88185e-06
-5.18987e-06
1.60648e-05
2.6833e-06
-2.13119e-06
1.68479e-05
5.54403e-06
-8.18778e-07
1.70385e-05
6.36307e-06
1.70905e-05
6.60463e-06
7.66778e-07
1.17765e-05
4.54715e-06
1.94056e-06
1.15396e-05
4.32524e-06
4.40673e-06
1.07774e-05
3.60437e-06
1.0824e-05
8.36711e-06
1.28054e-06
-1.0824e-05
-5.34831e-08
-7.02795e-06
-4.40677e-06
8.36713e-06
1.28054e-06
-1.94059e-06
1.07775e-05
3.60437e-06
-7.66806e-07
1.15396e-05
4.32524e-06
1.17766e-05
4.54717e-06
5.29785e-07
8.09398e-06
3.15282e-06
1.17844e-06
7.87453e-06
3.01647e-06
1.9964e-06
7.31148e-06
2.64808e-06
2.40339e-06
6.14528e-06
1.81491e-06
-2.40342e-06
4.37225e-06
3.81151e-07
-1.99642e-06
6.14531e-06
1.81491e-06
-1.17845e-06
7.31153e-06
2.64809e-06
-5.2981e-07
7.87459e-06
3.01648e-06
8.09405e-06
3.15284e-06
3.10338e-07
5.58144e-06
2.20229e-06
6.15393e-07
5.43701e-06
2.13263e-06
8.30196e-07
5.12352e-06
1.97331e-06
6.30363e-07
4.64094e-06
1.70432e-06
-6.30364e-07
4.20783e-06
1.42529e-06
-8.30193e-07
4.64096e-06
1.70432e-06
-6.1539e-07
5.12356e-06
1.97331e-06
-3.10356e-07
5.43707e-06
2.13263e-06
5.58149e-06
2.20231e-06
1.65913e-07
3.86934e-06
1.54626e-06
3.01897e-07
3.7876e-06
1.51359e-06
3.47615e-07
3.62996e-06
1.44798e-06
1.97257e-07
3.43206e-06
1.35937e-06
-1.97236e-07
3.30656e-06
1.2959e-06
-3.47595e-07
3.43208e-06
1.35937e-06
-3.01882e-07
3.63e-06
1.44798e-06
-1.65929e-07
3.78765e-06
1.51359e-06
3.8694e-06
1.54628e-06
8.41773e-08
2.69625e-06
1.08903e-06
1.44254e-07
2.65348e-06
1.07426e-06
1.49717e-07
2.57742e-06
1.04727e-06
7.17588e-08
2.494e-06
1.0162e-06
-7.17169e-08
2.45127e-06
9.98956e-07
-1.49678e-07
2.49402e-06
1.0162e-06
-1.44225e-07
2.57745e-06
1.04727e-06
-8.4187e-08
2.65352e-06
1.07426e-06
2.69629e-06
1.08905e-06
4.14092e-08
1.88648e-06
7.68454e-07
6.81908e-08
1.86505e-06
7.61854e-07
6.6305e-08
1.82894e-06
7.50544e-07
2.9022e-08
1.79262e-06
7.38845e-07
-2.89621e-08
1.77613e-06
7.33298e-07
-6.62509e-08
1.79264e-06
7.38846e-07
-6.81518e-08
1.82897e-06
7.50547e-07
-4.14175e-08
1.86509e-06
7.61861e-07
1.88653e-06
7.68481e-07
1.99763e-08
1.32367e-06
5.42976e-07
3.20837e-08
1.31316e-06
5.40029e-07
2.99846e-08
1.29609e-06
5.35176e-07
1.25312e-08
1.27981e-06
5.30481e-07
-1.2455e-08
1.27289e-06
5.28443e-07
-2.99158e-08
1.27983e-06
5.30482e-07
-3.20327e-08
1.29611e-06
5.35177e-07
-1.99791e-08
1.31319e-06
5.40034e-07
1.3237e-06
5.43003e-07
9.47426e-09
9.30171e-07
3.84141e-07
1.50093e-08
9.25049e-07
3.82822e-07
1.37089e-08
9.1691e-07
3.80696e-07
5.60827e-09
9.09406e-07
3.7872e-07
-5.51886e-09
9.06325e-07
3.779e-07
-1.36289e-08
9.09417e-07
3.7872e-07
-1.49511e-08
9.16932e-07
3.80698e-07
-9.47564e-09
9.25079e-07
3.82828e-07
9.30207e-07
3.8417e-07
4.35147e-09
6.53776e-07
2.72198e-07
6.87073e-09
6.51196e-07
2.71611e-07
6.20493e-09
6.47158e-07
2.70666e-07
2.5272e-09
6.4352e-07
2.69807e-07
-2.42648e-09
6.42057e-07
2.69459e-07
-6.11452e-09
6.43528e-07
2.69807e-07
-6.80369e-09
6.47173e-07
2.70666e-07
-4.34758e-09
6.51216e-07
2.71615e-07
6.53798e-07
2.72226e-07
1.77107e-09
4.58812e-07
1.93332e-07
2.83295e-09
4.57331e-07
1.93067e-07
2.56654e-09
4.5503e-07
1.92631e-07
1.0648e-09
4.53009e-07
1.92244e-07
-9.55726e-10
4.52214e-07
1.9209e-07
-2.46921e-09
4.53016e-07
1.92244e-07
-2.76134e-09
4.55043e-07
1.92632e-07
-1.76564e-09
4.57349e-07
1.93072e-07
4.58835e-07
1.9336e-07
2.9021e-10
3.20851e-07
1.37832e-07
5.3191e-10
3.19699e-07
1.37673e-07
5.45814e-10
3.17879e-07
1.37391e-07
2.69863e-10
3.16371e-07
1.37164e-07
-1.54228e-10
3.15803e-07
1.3708e-07
-4.42413e-10
3.16375e-07
1.37164e-07
-4.54802e-10
3.17886e-07
1.37391e-07
-2.79963e-10
3.19708e-07
1.37678e-07
3.20863e-07
1.37858e-07
-8.62366e-10
2.23012e-07
9.88467e-08
-1.28779e-09
2.21798e-07
9.85909e-08
-9.62469e-10
2.19721e-07
9.80709e-08
-2.98507e-10
2.182e-07
9.77406e-08
4.18257e-10
2.17675e-07
9.76392e-08
1.06903e-09
2.18203e-07
9.7741e-08
1.36691e-09
2.19726e-07
9.80721e-08
8.74371e-10
2.21805e-07
9.8596e-08
2.23024e-07
9.88737e-08
-2.07669e-09
1.53666e-07
7.15784e-08
-3.36454e-09
1.52481e-07
7.0871e-08
-2.48315e-09
1.49937e-07
6.91431e-08
-8.23678e-10
1.48508e-07
6.827e-08
9.45956e-10
1.48096e-07
6.80416e-08
2.59214e-09
1.48508e-07
6.82709e-08
3.44608e-09
1.49938e-07
6.91449e-08
2.09278e-09
1.52481e-07
7.08763e-08
1.53668e-07
7.16036e-08
-3.26237e-09
1.04197e-07
5.28699e-08
-5.90804e-09
1.04157e-07
5.12113e-08
-3.9119e-09
1.02696e-07
4.5465e-08
-1.23564e-09
1.02673e-07
4.3378e-08
1.3581e-09
1.02791e-07
4.29247e-08
4.02121e-09
1.0267e-07
4.33798e-08
5.98966e-09
1.02692e-07
4.54699e-08
3.27969e-09
1.04154e-07
5.12201e-08
1.04197e-07
5.28953e-08
-3.30218e-09
6.6556e-08
4.10806e-08
-7.3693e-09
6.92989e-08
3.91561e-08
-3.93521e-09
7.55313e-08
2.39412e-08
-1.11708e-09
7.88327e-08
2.12313e-08
1.23653e-09
7.98002e-08
2.0843e-08
4.04357e-09
7.88253e-08
2.1233e-08
7.45148e-09
7.55179e-08
2.39495e-08
3.32228e-09
6.92849e-08
3.91698e-08
6.65473e-08
4.11037e-08
-5.593e-10
3.25717e-08
3.46641e-08
-1.13683e-09
3.42608e-08
3.58245e-08
-6.33819e-10
3.73677e-08
3.7851e-08
-1.49588e-10
3.92873e-08
3.92517e-08
2.61595e-10
3.98834e-08
3.96925e-08
7.36136e-10
3.92815e-08
3.92463e-08
1.21849e-09
3.73576e-08
3.78435e-08
5.84696e-10
3.42502e-08
3.58228e-08
3.25717e-08
3.46803e-08
1.12971e-09
3.15539e-08
1.97012e-09
3.35828e-08
1.28575e-09
3.82022e-08
4.46499e-10
4.02769e-08
-3.40279e-10
4.08191e-08
-1.18777e-09
4.02699e-08
-1.88888e-09
3.819e-08
-1.09377e-09
3.35769e-08
3.1568e-08
0.000576124
0.00145593
0.00463897
0.00122386
0.00135781
0.00437483
0.00177031
0.00113843
0.00374111
0.000647732
0.000817762
0.00266159
-0.000647733
0.0006965
0.00229199
-0.00177031
0.000817762
0.00266159
-0.00122386
0.00113843
0.00374111
-0.000576124
0.00135781
0.00437483
0.00145593
0.00463897
0.000478008
0.00270834
0.00393432
0.00100448
0.00254268
0.00371871
0.00144963
0.00213953
0.00320542
0.00052647
0.00141924
0.00232496
-0.00052647
0.00118175
0.00202728
-0.00144963
0.00141924
0.00232496
-0.00100448
0.00213953
0.00320542
-0.000478008
0.00254268
0.00371871
0.00270834
0.00393432
0.000312354
0.00217461
0.00250966
0.000601324
0.00203973
0.00237879
0.00072935
0.00175486
0.00210198
0.00028897
0.00136487
0.00172142
-0.000288971
0.00121487
0.00157548
-0.00072935
0.00136487
0.00172142
-0.000601325
0.00175486
0.00210198
-0.000312354
0.00203973
0.00237879
0.00217461
0.00250966
0.000177478
0.00153706
0.00156231
0.000316447
0.00145284
0.00149432
0.000339367
0.00129384
0.00136493
0.000138969
0.0011107
0.0012139
-0.00013897
0.00103591
0.0011525
-0.000339367
0.0011107
0.0012139
-0.000316447
0.00129384
0.00136493
-0.000177478
0.00145284
0.00149432
0.00153706
0.00156231
9.32622e-05
0.00105781
0.00100017
0.000157442
0.00101143
0.000967412
0.000156226
0.000930327
0.000909736
6.41794e-05
0.000846327
0.000849354
-6.41797e-05
0.000811596
0.000824436
-0.000156226
0.000846327
0.000849354
-0.000157442
0.000930327
0.000909736
-9.32622e-05
0.00101143
0.000967412
0.00105781
0.00100017
4.68863e-05
0.000727554
0.000661704
7.63345e-05
0.000703647
0.00064644
7.22249e-05
0.000663868
0.000620946
2.94481e-05
0.000625246
0.000596043
-2.94485e-05
0.000609373
0.000585812
-7.22252e-05
0.000625246
0.000596043
-7.63347e-05
0.000663868
0.000620946
-4.68864e-05
0.000703647
0.00064644
0.000727554
0.000661704
2.29794e-05
0.000503302
0.000448953
3.65553e-05
0.000491421
0.000441923
3.36028e-05
0.000472266
0.000430573
1.35759e-05
0.000454381
0.00041995
-1.35762e-05
0.000447107
0.000415631
-3.36031e-05
0.000454381
0.00041995
-3.65555e-05
0.000472266
0.000430573
-2.29795e-05
0.000491421
0.000441923
0.000503302
0.000448953
1.1098e-05
0.000350346
0.000309703
1.74002e-05
0.000344564
0.000306468
1.57176e-05
0.000335425
0.000301355
6.3021e-06
0.00032709
0.00029669
-6.30239e-06
0.000323733
0.000294812
-1.57179e-05
0.00032709
0.00029669
-1.74004e-05
0.000335425
0.000301355
-1.10981e-05
0.000344564
0.000306468
0.000350346
0.000309703
5.31613e-06
0.000245132
0.000215826
8.2605e-06
0.000242355
0.000214332
7.38327e-06
0.000238018
0.000211999
2.94432e-06
0.00023412
0.000209904
-2.9446e-06
0.000232561
0.000209066
-7.38351e-06
0.00023412
0.000209904
-8.26068e-06
0.000238018
0.000211999
-5.31621e-06
0.000242355
0.000214332
0.000245132
0.000215826
2.53919e-06
0.000172192
0.000151302
3.92411e-06
0.000170873
0.000150606
3.48532e-06
0.000168831
0.000149529
1.38494e-06
0.000167012
0.00014857
-1.38519e-06
0.000166288
0.000148188
-3.48554e-06
0.000167012
0.00014857
-3.92428e-06
0.000168831
0.000149529
-2.53927e-06
0.000170873
0.000150606
0.000172192
0.000151302
1.22093e-06
0.000121323
0.000106414
1.88157e-06
0.000120712
0.000106085
1.66605e-06
0.000119772
0.000105578
6.60978e-07
0.000118942
0.000105128
-6.61212e-07
0.000118614
0.000104949
-1.66626e-06
0.000118942
0.000105128
-1.88172e-06
0.000119772
0.000105578
-1.221e-06
0.000120712
0.000106085
0.000121323
0.000106414
6.09714e-07
8.56952e-05
7.49488e-05
9.41332e-07
8.54352e-05
7.47853e-05
8.3645e-07
8.50443e-05
7.45322e-05
3.33472e-07
8.47126e-05
7.43061e-05
-3.33681e-07
8.45887e-05
7.42153e-05
-8.36634e-07
8.47126e-05
7.43061e-05
-9.41469e-07
8.50444e-05
7.45322e-05
-6.0978e-07
8.54353e-05
7.47853e-05
8.56953e-05
7.49488e-05
3.49761e-07
6.06623e-05
5.27818e-05
5.50403e-07
6.05927e-05
5.26847e-05
5.0474e-07
6.05118e-05
5.25295e-05
2.09598e-07
6.04857e-05
5.23831e-05
-2.09782e-07
6.05069e-05
5.23197e-05
-5.04902e-07
6.04857e-05
5.23831e-05
-5.50524e-07
6.05119e-05
5.25295e-05
-3.49822e-07
6.05927e-05
5.26847e-05
6.06624e-05
5.27818e-05
2.80098e-07
4.30146e-05
3.71062e-05
4.69546e-07
4.30658e-05
3.70193e-05
4.78583e-07
4.32113e-05
3.68664e-05
2.30813e-07
4.34762e-05
3.6697e-05
-2.3097e-07
4.37109e-05
3.66046e-05
-4.7872e-07
4.34762e-05
3.6697e-05
-4.69647e-07
4.32114e-05
3.68665e-05
-2.80149e-07
4.30659e-05
3.70194e-05
4.30147e-05
3.71063e-05
3.31317e-07
3.05004e-05
2.59889e-05
6.15057e-07
3.06277e-05
2.58703e-05
7.43423e-07
3.09621e-05
2.56313e-05
4.65544e-07
3.16108e-05
2.53019e-05
-4.65672e-07
3.23653e-05
2.5055e-05
-7.43535e-07
3.16108e-05
2.53019e-05
-6.1514e-07
3.09622e-05
2.56313e-05
-3.31362e-07
3.06278e-05
2.58703e-05
3.05005e-05
2.59889e-05
4.5857e-07
2.15313e-05
1.80977e-05
9.49494e-07
2.16499e-05
1.79139e-05
1.39205e-06
2.20125e-05
1.74891e-05
1.22006e-06
2.29496e-05
1.67547e-05
-1.22016e-06
2.47938e-05
1.59619e-05
-1.39213e-06
2.29496e-05
1.67547e-05
-9.49556e-07
2.20126e-05
1.74891e-05
-4.58605e-07
2.165e-05
1.79139e-05
2.15314e-05
1.80977e-05
5.77186e-07
1.5033e-05
1.25258e-05
1.3121e-06
1.50006e-05
1.22775e-05
2.32908e-06
1.49082e-05
1.16314e-05
3.06432e-06
1.4662e-05
1.02357e-05
-3.06439e-06
1.41132e-05
7.92755e-06
-2.32914e-06
1.46621e-05
1.02357e-05
-1.31215e-06
1.49083e-05
1.16314e-05
-5.77214e-07
1.50007e-05
1.22775e-05
1.5033e-05
1.25258e-05
5.44862e-07
1.03822e-05
8.65315e-06
1.21969e-06
1.02308e-05
8.4204e-06
2.0829e-06
9.82115e-06
7.82838e-06
2.51549e-06
8.90148e-06
6.60863e-06
-2.51554e-06
7.35562e-06
4.7608e-06
-2.08293e-06
8.9015e-06
6.60863e-06
-1.21972e-06
9.8212e-06
7.82838e-06
-5.44879e-07
1.02308e-05
8.42041e-06
1.03823e-05
8.65317e-06
3.93433e-07
7.14344e-06
5.99825e-06
8.10057e-07
6.99069e-06
5.84008e-06
1.16323e-06
6.63671e-06
5.47948e-06
9.69631e-07
6.03469e-06
4.87543e-06
-9.69653e-07
5.41639e-06
4.25979e-06
-1.16324e-06
6.03471e-06
4.87543e-06
-8.10066e-07
6.63675e-06
5.47949e-06
-3.93444e-07
6.99075e-06
5.84008e-06
7.14351e-06
5.99826e-06
2.40678e-07
4.92541e-06
4.1798e-06
4.56075e-07
4.81797e-06
4.09014e-06
5.61206e-07
4.59819e-06
3.90688e-06
3.51335e-07
4.29599e-06
3.65307e-06
-3.51335e-07
4.07844e-06
3.4661e-06
-5.61203e-07
4.29601e-06
3.65307e-06
-4.56068e-07
4.59823e-06
3.90688e-06
-2.4068e-07
4.81803e-06
4.09014e-06
4.92547e-06
4.17981e-06
1.33244e-07
3.41211e-06
2.92646e-06
2.36293e-07
3.34827e-06
2.88044e-06
2.59005e-07
3.22924e-06
2.79441e-06
1.33787e-07
3.08889e-06
2.69188e-06
-1.33764e-07
3.00962e-06
2.63246e-06
-2.58983e-07
3.08891e-06
2.69188e-06
-2.36274e-07
3.22928e-06
2.7944e-06
-1.33242e-07
3.34832e-06
2.88044e-06
3.41217e-06
2.92647e-06
6.9408e-08
2.37567e-06
2.05626e-06
1.17265e-07
2.34108e-06
2.03386e-06
1.18651e-07
2.28069e-06
1.99468e-06
5.45127e-08
2.21665e-06
1.95282e-06
-5.447e-08
2.18561e-06
1.93218e-06
-1.18611e-07
2.21666e-06
1.95282e-06
-1.17232e-07
2.28072e-06
1.99467e-06
-6.93993e-08
2.34112e-06
2.03385e-06
2.37572e-06
2.05626e-06
3.48094e-08
1.661e-06
1.44851e-06
5.6881e-08
1.64322e-06
1.4379e-06
5.46064e-08
1.61357e-06
1.42018e-06
2.34745e-08
1.58426e-06
1.40261e-06
-2.34137e-08
1.57127e-06
1.39476e-06
-5.45507e-08
1.58427e-06
1.4026e-06
-5.68373e-08
1.6136e-06
1.42017e-06
-3.47975e-08
1.64326e-06
1.43789e-06
1.66105e-06
1.44851e-06
1.70288e-08
1.16483e-06
1.02237e-06
2.72307e-08
1.15596e-06
1.0174e-06
2.52903e-08
1.14161e-06
1.00937e-06
1.04926e-08
1.12805e-06
1.00177e-06
-1.0416e-08
1.12235e-06
9.98554e-07
-2.52208e-08
1.12806e-06
1.00176e-06
-2.71755e-08
1.14163e-06
1.00936e-06
-1.70104e-08
1.15599e-06
1.01739e-06
1.16487e-06
1.02236e-06
8.15547e-09
8.18229e-07
7.22823e-07
1.28837e-08
8.13837e-07
7.20519e-07
1.17324e-08
8.0688e-07
7.16861e-07
4.78849e-09
8.00493e-07
7.135e-07
-4.69855e-09
7.97884e-07
7.12121e-07
-1.16512e-08
8.00504e-07
7.13494e-07
-1.28207e-08
8.069e-07
7.16851e-07
-8.13432e-09
8.13866e-07
7.20507e-07
8.18263e-07
7.22815e-07
3.76393e-09
5.7491e-07
5.12025e-07
5.92588e-09
5.72652e-07
5.10972e-07
5.34624e-09
5.69123e-07
5.09316e-07
2.17938e-09
5.65956e-07
5.07819e-07
-2.07856e-09
5.64688e-07
5.07214e-07
-5.25542e-09
5.65965e-07
5.07813e-07
-5.85456e-09
5.69139e-07
5.09304e-07
-3.73734e-09
5.72673e-07
5.10958e-07
5.74932e-07
5.12014e-07
1.5061e-09
4.03312e-07
3.63681e-07
2.39746e-09
4.01938e-07
3.6322e-07
2.17898e-09
3.9979e-07
3.6249e-07
9.10918e-10
3.97929e-07
3.61839e-07
-8.01583e-10
3.97204e-07
3.61578e-07
-2.08078e-09
3.97936e-07
3.61832e-07
-2.3213e-09
3.99802e-07
3.62477e-07
-1.47756e-09
4.01955e-07
3.63205e-07
4.03333e-07
3.6367e-07
1.31889e-10
2.81867e-07
2.59422e-07
2.4958e-10
2.80616e-07
2.59221e-07
3.18372e-10
2.78559e-07
2.58874e-07
1.85956e-10
2.76948e-07
2.58593e-07
-7.02723e-11
2.76362e-07
2.58485e-07
-2.14695e-10
2.76952e-07
2.58586e-07
-1.68528e-10
2.78567e-07
2.58861e-07
-9.91692e-11
2.80627e-07
2.59205e-07
2.81878e-07
2.5941e-07
-1.11824e-09
1.95744e-07
1.86347e-07
-1.80775e-09
1.94078e-07
1.86146e-07
-1.2928e-09
1.90793e-07
1.85628e-07
-3.99838e-10
1.8873e-07
1.85368e-07
5.20029e-10
1.88078e-07
1.85298e-07
1.40015e-09
1.88733e-07
1.85361e-07
1.89074e-09
1.90799e-07
1.85616e-07
1.15206e-09
1.94086e-07
1.86131e-07
1.95754e-07
1.86334e-07
-2.78416e-09
1.34958e-07
1.35409e-07
-5.09245e-09
1.32821e-07
1.34759e-07
-3.35623e-09
1.26259e-07
1.32245e-07
-1.05205e-09
1.23616e-07
1.31381e-07
1.1752e-09
1.22979e-07
1.31205e-07
3.46622e-09
1.23617e-07
1.31375e-07
5.17747e-09
1.26263e-07
1.32235e-07
2.8201e-09
1.32825e-07
1.34746e-07
1.3496e-07
1.35398e-07
-4.92096e-09
9.2408e-08
1.00578e-07
-1.16543e-08
9.21023e-08
9.89619e-08
-5.99893e-09
8.11723e-08
8.51799e-08
-1.68895e-09
8.05261e-08
8.24406e-08
1.81323e-09
8.07098e-08
8.19668e-08
6.11136e-09
8.0523e-08
8.24371e-08
1.17398e-08
8.11718e-08
8.51779e-08
4.95493e-09
9.21037e-08
9.89593e-08
9.2405e-08
1.00569e-07
-5.22668e-09
6.01395e-08
7.88016e-08
-2.25842e-08
6.59672e-08
8.29293e-08
-6.6451e-09
8.94412e-08
-1.50532e-09
9.68532e-08
1.62649e-09
9.86497e-08
6.76007e-09
9.68386e-08
2.26717e-08
8.94118e-08
5.25617e-09
6.59379e-08
8.29399e-08
6.0124e-08
7.87923e-08
6.01053e-10
2.94615e-08
6.49455e-08
8.89714e-10
3.20191e-08
6.97405e-08
7.66902e-10
3.77189e-08
8.99123e-08
2.91192e-10
4.03125e-08
9.64845e-08
-1.84567e-10
4.101e-08
9.80213e-08
-6.66732e-10
4.03051e-08
9.64639e-08
-8.02218e-10
3.77041e-08
8.98745e-08
-5.57716e-10
3.20044e-08
6.97115e-08
2.94594e-08
6.4928e-08
3.15861e-09
5.80164e-08
6.58952e-09
6.23577e-08
3.3605e-09
7.93297e-08
9.88654e-10
8.31425e-08
-8.89435e-10
8.38856e-08
-3.26773e-09
8.3122e-08
-6.50193e-09
7.9285e-08
-3.10266e-09
6.23263e-08
5.79965e-08
0.000311991
0.000751281
0.0035757
0.000590128
0.000701688
0.00339501
0.000690786
0.000602751
0.0030377
0.000278137
0.000481136
0.0025931
-0.000278137
0.000431792
0.00241647
-0.000690786
0.000481136
0.0025931
-0.000590128
0.000602751
0.0030377
-0.000311991
0.000701688
0.00339501
0.000751281
0.0035757
0.000262398
0.00128368
0.00313953
0.000491191
0.00120276
0.00298884
0.000569171
0.00103608
0.00269411
0.000228793
0.000815706
0.00233077
-0.000228794
0.000729944
0.00218672
-0.000569171
0.000815706
0.00233077
-0.000491191
0.00103608
0.00269411
-0.000262398
0.00120276
0.00298884
0.00128368
0.00313953
0.00018148
0.00122726
0.0023846
0.000324512
0.00115526
0.00228326
0.000348796
0.00101781
0.00209596
0.000143031
0.000857346
0.00188555
-0.000143031
0.00079189
0.0017996
-0.000348796
0.000857346
0.00188555
-0.000324512
0.00101781
0.00209596
-0.000181481
0.00115526
0.00228326
0.00122726
0.0023846
0.000109485
0.000974917
0.00170516
0.000187061
0.000925937
0.00164607
0.000188333
0.000838642
0.00154283
7.75751e-05
0.000746153
0.00143585
-7.75754e-05
0.000707839
0.0013917
-0.000188333
0.000746153
0.00143585
-0.000187061
0.000838642
0.00154283
-0.000109485
0.000925937
0.00164607
0.000974917
0.00170516
6.05047e-05
0.000719345
0.00119524
9.97659e-05
0.000690463
0.00116362
9.58439e-05
0.000641537
0.00111076
3.92611e-05
0.000593015
0.00105907
-3.92614e-05
0.000572972
0.00103783
-9.58441e-05
0.000593015
0.00105907
-9.97661e-05
0.000641537
0.00111076
-6.05048e-05
0.000690463
0.00116362
0.000719345
0.00119524
3.16226e-05
0.000514803
0.000834624
5.08403e-05
0.000499129
0.000818556
4.73219e-05
0.000473495
0.000792507
1.92176e-05
0.000449153
0.000768009
-1.92179e-05
0.000439192
0.000758028
-4.73221e-05
0.000449153
0.00076801
-5.08404e-05
0.000473495
0.000792507
-3.16227e-05
0.000499129
0.000818556
0.000514803
0.000834624
1.59493e-05
0.000364053
0.000583753
2.52057e-05
0.000355967
0.000575828
2.29802e-05
0.000343048
0.000563245
9.25629e-06
0.000331121
0.000551706
-9.25658e-06
0.000326288
0.000547047
-2.29804e-05
0.000331121
0.000551706
-2.52058e-05
0.000343048
0.000563245
-1.59494e-05
0.000355967
0.000575829
0.000364053
0.000583753
7.86311e-06
0.000256469
0.000409423
1.22868e-05
0.000252428
0.000405583
1.10533e-05
0.000246069
0.000399566
4.42358e-06
0.000240304
0.000394137
-4.42386e-06
0.000237987
0.00039196
-1.10535e-05
0.000240304
0.000394137
-1.22869e-05
0.000246069
0.000399566
-7.86319e-06
0.000252428
0.000405583
0.000256469
0.000409423
3.82169e-06
0.000180607
0.000287866
5.92822e-06
0.000178629
0.000286023
5.28791e-06
0.000175548
0.000283161
2.10647e-06
0.000172786
0.000280603
-2.10673e-06
0.000171683
0.000279583
-5.28814e-06
0.000172786
0.000280603
-5.92839e-06
0.000175548
0.000283161
-3.82178e-06
0.000178629
0.000286023
0.000180607
0.000287866
1.84385e-06
0.000127304
0.000202761
2.84705e-06
0.000126352
0.00020188
2.52612e-06
0.000124879
0.000200519
1.00318e-06
0.000123569
0.00019931
-1.00342e-06
0.000123049
0.000198829
-2.52633e-06
0.000123569
0.00019931
-2.84721e-06
0.000124879
0.000200519
-1.84393e-06
0.000126352
0.00020188
0.000127304
0.000202761
8.9234e-07
8.98582e-05
0.000142966
1.37444e-06
8.94121e-05
0.000142543
1.21618e-06
8.87259e-05
0.000141889
4.82239e-07
8.812e-05
0.000141311
-4.82459e-07
8.78805e-05
0.000141082
-1.21638e-06
8.81201e-05
0.000141311
-1.37458e-06
8.87259e-05
0.000141889
-8.92412e-07
8.94122e-05
0.000142543
8.98583e-05
0.000142966
4.46261e-07
6.35282e-05
0.000100832
6.88182e-07
6.33346e-05
0.000100621
6.10353e-07
6.30417e-05
0.000100294
2.42741e-07
6.27897e-05
0.000100004
-2.42939e-07
6.26931e-05
9.98884e-05
-6.10527e-07
6.27897e-05
0.000100004
-6.88312e-07
6.30417e-05
0.000100294
-4.46327e-07
6.33347e-05
0.000100621
6.35283e-05
0.000100832
2.52664e-07
4.49868e-05
7.10705e-05
3.95188e-07
4.49273e-05
7.09494e-05
3.58348e-07
4.48488e-05
7.07591e-05
1.46195e-07
4.47996e-05
7.05853e-05
-1.46369e-07
4.47917e-05
7.05136e-05
-3.585e-07
4.47996e-05
7.05853e-05
-3.95301e-07
4.48488e-05
7.07592e-05
-2.52723e-07
4.49274e-05
7.09494e-05
4.49868e-05
7.10706e-05
1.93207e-07
3.18972e-05
5.00025e-05
3.1664e-07
3.19168e-05
4.99064e-05
3.09151e-07
3.19761e-05
4.97465e-05
1.38371e-07
3.2081e-05
4.95863e-05
-1.38518e-07
3.21614e-05
4.95118e-05
-3.0928e-07
3.20811e-05
4.95863e-05
-3.16735e-07
3.19762e-05
4.97465e-05
-1.93257e-07
3.19168e-05
4.99064e-05
3.18973e-05
5.00026e-05
2.12739e-07
2.26092e-05
3.50641e-05
3.76016e-07
2.26713e-05
3.49525e-05
4.14048e-07
2.282e-05
3.47494e-05
2.18691e-07
2.30636e-05
3.45147e-05
-2.18811e-07
2.32722e-05
3.43817e-05
-4.14152e-07
2.30636e-05
3.45147e-05
-3.76093e-07
2.282e-05
3.47494e-05
-2.12781e-07
2.26714e-05
3.49525e-05
2.26093e-05
3.50641e-05
2.74795e-07
1.59595e-05
2.44727e-05
5.24707e-07
1.60135e-05
2.43218e-05
6.57657e-07
1.61549e-05
2.40213e-05
4.27268e-07
1.64305e-05
2.36182e-05
-4.2736e-07
1.67595e-05
2.33293e-05
-6.57737e-07
1.64305e-05
2.36182e-05
-5.24765e-07
1.61549e-05
2.40213e-05
-2.74826e-07
1.60136e-05
2.43218e-05
1.59596e-05
2.44727e-05
3.28872e-07
1.11603e-05
1.69961e-05
6.66022e-07
1.11435e-05
1.68104e-05
9.33313e-07
1.11052e-05
1.64139e-05
7.56215e-07
1.1035e-05
1.58083e-05
-7.56282e-07
1.09465e-05
1.52531e-05
-9.33369e-07
1.1035e-05
1.58083e-05
-6.6606e-07
1.11052e-05
1.64139e-05
-3.28892e-07
1.11436e-05
1.68104e-05
1.11604e-05
1.69962e-05
3.12113e-07
7.72731e-06
1.17741e-05
6.27663e-07
7.65046e-06
1.15981e-05
8.63147e-07
7.47226e-06
1.12259e-05
6.67664e-07
7.16828e-06
1.0671e-05
-6.67708e-07
6.85461e-06
1.01881e-05
-8.63182e-07
7.1683e-06
1.0671e-05
-6.27684e-07
7.4723e-06
1.12259e-05
-3.12124e-07
7.65051e-06
1.15981e-05
7.72738e-06
1.17741e-05
2.35257e-07
5.325e-06
8.16539e-06
4.49465e-07
5.24076e-06
8.03568e-06
5.59168e-07
5.0641e-06
7.77804e-06
3.53992e-07
4.81233e-06
7.43666e-06
-3.54013e-07
4.6227e-06
7.19981e-06
-5.59184e-07
4.81235e-06
7.43666e-06
-4.49472e-07
5.06414e-06
7.77804e-06
-2.35262e-07
5.24081e-06
8.03568e-06
5.32506e-06
8.1654e-06
1.51016e-07
3.67207e-06
5.68185e-06
2.7281e-07
3.60827e-06
5.601e-06
3.074e-07
3.48572e-06
5.45082e-06
1.64361e-07
3.3348e-06
5.2738e-06
-1.6436e-07
3.24481e-06
5.17287e-06
-3.07397e-07
3.33482e-06
5.2738e-06
-2.72802e-07
3.48576e-06
5.45082e-06
-1.51014e-07
3.60832e-06
5.60099e-06
3.67212e-06
5.68184e-06
8.72221e-08
2.5419e-06
3.96953e-06
1.50256e-07
2.50169e-06
3.92416e-06
1.56479e-07
2.42952e-06
3.84454e-06
7.43727e-08
2.34983e-06
3.7591e-06
-7.43512e-08
2.30933e-06
3.71682e-06
-1.56457e-07
2.34985e-06
3.7591e-06
-1.50236e-07
2.42955e-06
3.84453e-06
-8.72162e-08
2.50173e-06
3.92415e-06
2.54196e-06
3.96952e-06
4.70047e-08
1.76793e-06
2.7834e-06
7.80871e-08
1.74512e-06
2.75956e-06
7.67966e-08
1.70619e-06
2.71949e-06
3.38721e-08
1.66643e-06
2.67935e-06
-3.38318e-08
1.64818e-06
2.66124e-06
-7.67589e-08
1.66645e-06
2.67935e-06
-7.8055e-08
1.70623e-06
2.71948e-06
-4.69923e-08
1.74516e-06
2.75955e-06
1.76797e-06
2.78338e-06
2.41931e-08
1.23486e-06
1.95755e-06
3.91639e-08
1.22272e-06
1.94553e-06
3.70327e-08
1.20276e-06
1.92595e-06
1.56223e-08
1.18341e-06
1.90723e-06
-1.55652e-08
1.17507e-06
1.89924e-06
-3.69803e-08
1.18343e-06
1.90722e-06
-3.9121e-08
1.20278e-06
1.92594e-06
-2.41768e-08
1.22276e-06
1.94552e-06
1.2349e-06
1.95754e-06
1.20624e-08
8.65285e-07
1.38008e-06
1.91952e-08
8.59075e-07
1.37417e-06
1.76902e-08
8.49105e-07
1.36476e-06
7.28116e-09
8.39786e-07
1.35604e-06
-7.20937e-09
8.35915e-07
1.35243e-06
-1.76247e-08
8.39799e-07
1.35603e-06
-1.91423e-08
8.49128e-07
1.36474e-06
-1.204e-08
8.59106e-07
1.37415e-06
8.6532e-07
1.38005e-06
5.85186e-09
6.07431e-07
9.75016e-07
9.22576e-09
6.04291e-07
9.72182e-07
8.37134e-09
5.99334e-07
9.67719e-07
3.40973e-09
5.94813e-07
9.63663e-07
-3.32547e-09
5.92977e-07
9.62016e-07
-8.29493e-09
5.94823e-07
9.63654e-07
-9.16464e-09
5.99354e-07
9.67702e-07
-5.82643e-09
6.04317e-07
9.72158e-07
6.07463e-07
9.74992e-07
2.71124e-09
4.26566e-07
6.904e-07
4.26961e-09
4.24899e-07
6.89088e-07
3.84981e-09
4.22297e-07
6.87036e-07
1.57423e-09
4.19976e-07
6.8519e-07
-1.47967e-09
4.19051e-07
6.84446e-07
-3.76429e-09
4.19984e-07
6.8518e-07
-4.20128e-09
4.22312e-07
6.87017e-07
-2.68091e-09
4.24919e-07
6.89062e-07
4.26588e-07
6.90373e-07
1.04451e-09
2.99053e-07
4.9036e-07
1.66737e-09
2.97939e-07
4.89832e-07
1.52845e-09
2.96175e-07
4.89007e-07
6.4966e-10
2.94683e-07
4.88261e-07
-5.47055e-10
2.94112e-07
4.87958e-07
-1.43599e-09
2.9469e-07
4.88251e-07
-1.59394e-09
2.96186e-07
4.88987e-07
-1.01211e-09
2.97955e-07
4.89805e-07
2.99073e-07
4.90332e-07
-6.92759e-11
2.08791e-07
3.49983e-07
-9.7533e-11
2.07542e-07