/*--------------------------------*- C++ -*----------------------------------*\
  =========                 |
  \\      /  F ield         | OpenFOAM: The Open Source CFD Toolbox
   \\    /   O peration     | Website:  https://openfoam.org
    \\  /    A nd           | Version:  6
     \\/     M anipulation  |
\*---------------------------------------------------------------------------*/
FoamFile
{
    version     2.0;
    format      ascii;
    class       volVectorField;
    location    "0";
    object      U;
}
// * * * * * * * * * * * * * * * * * * * * * * * * * * * * * * * * * * * * * //

dimensions      [0 1 -1 0 0 0 0];

internalField   nonuniform List<vector> 
3029
(
(0.833551 0.0433383 0.123111)
(0.819019 0.152251 0.115407)
(0.771299 0.350888 0.0956371)
(0.117839 0.30755 0.058563)
(0.0846513 -1.43285e-08 0.0464968)
(0.117839 -0.30755 0.058563)
(0.771299 -0.350888 0.0956371)
(0.819019 -0.152251 0.115407)
(0.833551 -0.0433383 0.123111)
(0.783237 0.0356346 0.42735)
(0.771503 0.124777 0.405803)
(0.732584 0.294044 0.342931)
(0.100164 0.25841 0.168356)
(0.0729795 -1.50139e-08 0.12703)
(0.100164 -0.25841 0.168356)
(0.732584 -0.294044 0.342931)
(0.771503 -0.124777 0.405803)
(0.783237 -0.0356346 0.42735)
(0.114414 0.0217917 0.472272)
(0.10824 0.067832 0.448304)
(0.0922664 0.113441 0.380962)
(0.0613335 0.091649 0.201404)
(0.0515334 -1.54318e-08 0.15803)
(0.0613335 -0.091649 0.201404)
(0.0922664 -0.113441 0.380962)
(0.10824 -0.067832 0.448304)
(0.114414 -0.0217917 0.472272)
(0.0551118 0.0116659 0.269288)
(0.0523198 0.0334665 0.25336)
(0.0463416 0.0471444 0.21745)
(0.0379661 0.0354785 0.160465)
(0.0347799 -1.56918e-08 0.140484)
(0.0379661 -0.0354785 0.160465)
(0.0463416 -0.0471444 0.21745)
(0.0523198 -0.0334665 0.25336)
(0.0551118 -0.0116659 0.269288)
(0.0307092 0.00586313 0.165938)
(0.0295092 0.0159938 0.157129)
(0.0272506 0.0205456 0.140031)
(0.024647 0.0146824 0.119208)
(0.0235884 -1.57372e-08 0.11092)
(0.024647 -0.0146824 0.119208)
(0.0272506 -0.0205456 0.140031)
(0.0295092 -0.0159939 0.157129)
(0.0307092 -0.00586313 0.165938)
(0.0189167 0.00285595 0.107593)
(0.0184051 0.00755889 0.1031)
(0.0175189 0.00922377 0.0951594)
(0.0166093 0.00636782 0.0867727)
(0.0162347 -1.55501e-08 0.0833262)
(0.0166093 -0.00636784 0.0867727)
(0.0175189 -0.00922379 0.0951594)
(0.0184051 -0.00755891 0.1031)
(0.0189167 -0.00285596 0.107593)
(0.0123841 0.00136937 0.0720673)
(0.0121637 0.00355985 0.0698628)
(0.0118009 0.00421862 0.066184)
(0.0114529 0.00284925 0.0625914)
(0.0113106 -1.51531e-08 0.0611171)
(0.0114529 -0.00284928 0.0625914)
(0.0118009 -0.00421865 0.066184)
(0.0121637 -0.00355986 0.0698628)
(0.0123841 -0.00136938 0.0720673)
(0.00839226 0.000651457 0.0492701)
(0.00829571 0.0016756 0.0482096)
(0.00814157 0.00195235 0.0464997)
(0.00799925 0.00130089 0.0449017)
(0.00794167 -1.45481e-08 0.0442523)
(0.00799925 -0.00130092 0.0449017)
(0.00814157 -0.00195237 0.0464997)
(0.00829571 -0.00167561 0.0482096)
(0.00839226 -0.00065146 0.0492701)
(0.00579639 0.000308866 0.0341211)
(0.00575333 0.000789422 0.0336161)
(0.0056858 0.000910754 0.0328186)
(0.00562477 0.000601887 0.0320917)
(0.0056003 -1.37821e-08 0.0317991)
(0.00562477 -0.000601913 0.0320917)
(0.0056858 -0.000910775 0.0328186)
(0.00575333 -0.000789434 0.0336162)
(0.00579639 -0.000308869 0.0341211)
(0.00404506 0.000146504 0.0238243)
(0.00402552 0.000373057 0.0235855)
(0.00399517 0.000427925 0.0232131)
(0.00396806 0.000281425 0.0228787)
(0.00395726 -1.2839e-08 0.022745)
(0.00396806 -0.000281449 0.0228787)
(0.00399517 -0.000427945 0.0232131)
(0.00402552 -0.000373068 0.0235855)
(0.00404506 -0.000146507 0.0238243)
(0.0028383 7.01363e-05 0.0167243)
(0.00282921 0.000178265 0.0166127)
(0.00281516 0.000203921 0.0164403)
(0.00280267 0.000133812 0.016287)
(0.0027977 -1.17834e-08 0.0162262)
(0.00280267 -0.000133834 0.016287)
(0.00281516 -0.000203939 0.0164403)
(0.00282921 -0.000178276 0.0166128)
(0.0028383 -7.01393e-05 0.0167243)
(0.00199654 3.49987e-05 0.0117843)
(0.00199203 8.90836e-05 0.0117344)
(0.00198501 0.000102223 0.0116584)
(0.0019787 6.73763e-05 0.0115923)
(0.00197613 -1.05841e-08 0.0115669)
(0.0019787 -6.73961e-05 0.0115923)
(0.00198501 -0.000102239 0.0116584)
(0.00199203 -8.90932e-05 0.0117344)
(0.00199654 -3.50015e-05 0.0117843)
(0.00140494 2.02839e-05 0.00832749)
(0.00140215 5.23773e-05 0.00830933)
(0.00139757 6.18471e-05 0.00828407)
(0.00139306 4.2362e-05 0.00826662)
(0.00139093 -9.32101e-09 0.00826357)
(0.00139306 -4.23795e-05 0.00826662)
(0.00139757 -6.18614e-05 0.00828407)
(0.00140215 -5.23861e-05 0.00830933)
(0.00140494 -2.02866e-05 0.00832749)
(0.000986932 1.68375e-05 0.00589848)
(0.000984099 4.56629e-05 0.00589927)
(0.000978751 5.95174e-05 0.00590821)
(0.000971989 4.68804e-05 0.00593322)
(0.000967341 -7.94258e-09 0.00596291)
(0.000971989 -4.68953e-05 0.00593322)
(0.000978751 -5.95294e-05 0.00590821)
(0.0009841 -4.56705e-05 0.00589928)
(0.000986932 -1.68399e-05 0.00589849)
(0.000690306 2.10725e-05 0.00418333)
(0.000685799 6.21001e-05 0.00419742)
(0.000675524 9.57911e-05 0.00423832)
(0.000657932 9.70616e-05 0.00433026)
(0.000638911 -6.50077e-09 0.00447364)
(0.000657932 -9.70739e-05 0.00433026)
(0.000675525 -9.58012e-05 0.00423833)
(0.000685799 -6.21068e-05 0.00419743)
(0.000690306 -2.10749e-05 0.00418334)
(0.000479354 3.09321e-05 0.00296166)
(0.00047135 0.000100656 0.00298153)
(0.000449101 0.000192353 0.00304706)
(0.000396074 0.000282196 0.00325178)
(0.00029751 -4.90645e-09 0.00394096)
(0.000396074 -0.000282205 0.00325179)
(0.000449101 -0.000192361 0.00304706)
(0.00047135 -0.000100662 0.00298154)
(0.000479354 -3.09342e-05 0.00296167)
(0.000330231 4.0937e-05 0.00208021)
(0.000318153 0.000147494 0.00208762)
(0.000277201 0.000366047 0.00211492)
(0.000134165 0.000990964 0.00221263)
(-0.00371947 -3.41809e-09 0.00259426)
(0.000134165 -0.00099097 0.00221263)
(0.000277201 -0.000366053 0.00211493)
(0.000318153 -0.000147498 0.00208762)
(0.000330232 -4.09389e-05 0.00208022)
(0.000227358 3.83389e-05 0.00144335)
(0.000216262 0.000135367 0.0014289)
(0.000180219 0.000317364 0.00138127)
(6.40269e-05 0.000761536 0.0012216)
(-0.00240084 -2.15342e-09 0.000610292)
(6.40268e-05 -0.00076154 0.0012216)
(0.000180219 -0.000317368 0.00138127)
(0.000216262 -0.00013537 0.00142891)
(0.000227359 -3.83403e-05 0.00144336)
(0.000157641 2.64892e-05 0.000993526)
(0.000150823 8.54112e-05 0.000970704)
(0.000132404 0.000158742 0.000904446)
(9.07457e-05 0.00021999 0.00072562)
(1.90576e-05 -1.13025e-09 0.000215939)
(9.07457e-05 -0.000219992 0.000725622)
(0.000132404 -0.000158744 0.00090445)
(0.000150824 -8.54132e-05 0.00097071)
(0.000157642 -2.64905e-05 0.000993533)
(0.000110114 1.55169e-05 0.000683771)
(0.000106631 4.62866e-05 0.000665577)
(9.86654e-05 7.22794e-05 0.00062175)
(8.52159e-05 7.3028e-05 0.000539311)
(7.12645e-05 -3.8899e-11 0.000429004)
(8.52159e-05 -7.30279e-05 0.000539313)
(9.86655e-05 -7.22792e-05 0.000621754)
(0.000106632 -4.62873e-05 0.000665583)
(0.000110115 -1.55178e-05 0.000683777)
(7.73128e-05 8.29567e-06 0.000472539)
(7.56793e-05 2.33905e-05 0.000461231)
(7.23991e-05 3.24756e-05 0.000437674)
(6.79686e-05 2.72436e-05 0.00040365)
(6.4795e-05 1.05353e-09 0.00037572)
(6.79686e-05 -2.72415e-05 0.000403652)
(7.23992e-05 -3.24738e-05 0.000437678)
(7.56797e-05 -2.33906e-05 0.000461236)
(7.7314e-05 -8.29647e-06 0.000472544)
(5.44513e-05 4.20886e-06 0.000328279)
(5.37129e-05 1.14216e-05 0.000322054)
(5.23634e-05 1.46986e-05 0.000310369)
(5.08101e-05 1.10738e-05 0.000296303)
(4.99478e-05 2.09625e-09 0.000287891)
(5.08101e-05 -1.10698e-05 0.000296305)
(5.23635e-05 -1.46952e-05 0.000310372)
(5.37131e-05 -1.14206e-05 0.000322059)
(5.44525e-05 -4.20935e-06 0.000328284)
(3.84227e-05 2.07046e-06 0.000229136)
(3.80927e-05 5.48e-06 0.000225926)
(3.75272e-05 6.72479e-06 0.000220318)
(3.69423e-05 4.76635e-06 0.000214331)
(3.66649e-05 2.99635e-09 0.00021137)
(3.69423e-05 -4.76065e-06 0.000214333)
(3.75273e-05 -6.72013e-06 0.000220321)
(3.80931e-05 -5.47847e-06 0.000225931)
(3.84241e-05 -2.07088e-06 0.000229141)
(2.71488e-05 9.98817e-07 0.000160507)
(2.70014e-05 2.603e-06 0.000158911)
(2.67588e-05 3.10342e-06 0.000156251)
(2.65241e-05 2.12579e-06 0.000153622)
(2.64221e-05 3.81006e-09 0.000152451)
(2.65241e-05 -2.11854e-06 0.000153623)
(2.67588e-05 -3.09743e-06 0.000156254)
(2.70017e-05 -2.60059e-06 0.000158914)
(2.71501e-05 -9.98954e-07 0.000160511)
(1.9207e-05 4.73713e-07 0.000112692)
(1.91411e-05 1.22418e-06 0.000111911)
(1.90348e-05 1.43591e-06 0.00011065)
(1.8936e-05 9.65857e-07 0.000109461)
(1.8895e-05 4.47057e-09 0.000108961)
(1.8936e-05 -9.57388e-07 0.000109462)
(1.90349e-05 -1.429e-06 0.000110652)
(1.91414e-05 -1.22134e-06 0.000111914)
(1.92085e-05 -4.73782e-07 0.000112695)
(1.36099e-05 2.17574e-07 7.91974e-05)
(1.35805e-05 5.6111e-07 7.88122e-05)
(1.35333e-05 6.53783e-07 7.82034e-05)
(1.34904e-05 4.36606e-07 7.76463e-05)
(1.3473e-05 5.0358e-09 7.74191e-05)
(1.34904e-05 -4.2705e-07 7.76473e-05)
(1.35333e-05 -6.45911e-07 7.82053e-05)
(1.35808e-05 -5.57564e-07 7.88147e-05)
(1.36113e-05 -2.17379e-07 7.92002e-05)
(9.66658e-06 8.85533e-08 5.56294e-05)
(9.65333e-06 2.30201e-07 5.54263e-05)
(9.63156e-06 2.69975e-07 5.51094e-05)
(9.61218e-06 1.81567e-07 5.48264e-05)
(9.60448e-06 5.45387e-09 5.47136e-05)
(9.61219e-06 -1.71247e-07 5.48272e-05)
(9.63161e-06 -2.61527e-07 5.51108e-05)
(9.65362e-06 -2.26349e-07 5.54282e-05)
(9.66802e-06 -8.82819e-08 5.56316e-05)
(6.89158e-06 1.45105e-08 3.89832e-05)
(6.88367e-06 4.1106e-08 3.88515e-05)
(6.86955e-06 5.38862e-08 3.86455e-05)
(6.85818e-06 4.07838e-08 3.8469e-05)
(6.85398e-06 5.78173e-09 3.84008e-05)
(6.85818e-06 -2.98321e-08 3.84695e-05)
(6.86957e-06 -4.48607e-08 3.86465e-05)
(6.88388e-06 -3.67382e-08 3.88529e-05)
(6.89292e-06 -1.39981e-08 3.89849e-05)
(4.94234e-06 -4.31183e-08 2.71932e-05)
(4.92954e-06 -1.07508e-07 2.70748e-05)
(4.90355e-06 -1.12513e-07 2.688e-05)
(4.88703e-06 -6.30488e-08 2.67286e-05)
(4.88196e-06 5.98751e-09 2.66739e-05)
(4.88705e-06 7.43644e-08 2.67289e-05)
(4.90361e-06 1.21797e-07 2.68806e-05)
(4.9298e-06 1.12064e-07 2.70757e-05)
(4.94368e-06 4.37185e-08 2.71943e-05)
(3.57892e-06 -1.03835e-07 1.88339e-05)
(3.54355e-06 -2.72062e-07 1.87139e-05)
(3.45715e-06 -2.92385e-07 1.84829e-05)
(3.4135e-06 -1.65342e-07 1.83354e-05)
(3.40208e-06 6.11387e-09 1.82886e-05)
(3.41354e-06 1.76905e-07 1.83356e-05)
(3.45725e-06 3.01911e-07 1.84832e-05)
(3.54382e-06 2.76943e-07 1.87143e-05)
(3.58018e-06 1.04639e-07 1.88346e-05)
(2.64349e-06 -1.63118e-07 1.28932e-05)
(2.56056e-06 -4.58521e-07 1.28319e-05)
(2.27325e-06 -4.90997e-07 1.26317e-05)
(2.1689e-06 -2.57377e-07 1.25591e-05)
(2.14623e-06 6.12315e-09 1.25444e-05)
(2.16899e-06 2.68965e-07 1.25589e-05)
(2.2735e-06 5.00543e-07 1.26315e-05)
(2.561e-06 4.63467e-07 1.28318e-05)
(2.64476e-06 1.63985e-07 1.28932e-05)
(2.05403e-06 -1.65109e-07 8.53766e-06)
(1.95781e-06 -5.33574e-07 8.67281e-06)
(1.19706e-06 -5.65226e-07 8.91138e-06)
(1.06156e-06 -2.52615e-07 9.07528e-06)
(1.04215e-06 5.97207e-09 9.12958e-06)
(1.06165e-06 2.64005e-07 9.07476e-06)
(1.19748e-06 5.74752e-07 8.9105e-06)
(1.95849e-06 5.38688e-07 8.67194e-06)
(2.05518e-06 1.66114e-07 8.53719e-06)
(1.73321e-06 -2.7965e-08 4.95639e-06)
(1.79122e-06 -8.48066e-08 5.17798e-06)
(1.89255e-06 -8.85326e-08 5.64495e-06)
(1.96259e-06 -3.91704e-08 5.906e-06)
(1.98463e-06 5.60036e-09 5.98418e-06)
(1.96232e-06 4.98866e-08 5.90534e-06)
(1.89217e-06 9.77315e-08 5.64377e-06)
(1.79114e-06 9.01595e-08 5.17676e-06)
(1.73402e-06 2.92348e-08 4.95595e-06)
(1.57769e-06 5.64855e-08 1.62859e-06)
(1.67914e-06 1.54992e-07 1.71304e-06)
(1.91011e-06 1.62794e-07 1.86839e-06)
(2.01385e-06 8.66125e-08 1.96436e-06)
(2.04095e-06 5.31099e-09 1.99417e-06)
(2.0135e-06 -7.64025e-08 1.96407e-06)
(1.9095e-06 -1.53833e-07 1.86788e-06)
(1.67885e-06 -1.49133e-07 1.71251e-06)
(1.5784e-06 -5.46884e-08 1.62859e-06)
(0.565499 0.0288062 0.0727964)
(0.537761 0.089999 0.0678906)
(0.458355 0.149708 0.0569216)
(0.250918 0.120902 0.0408881)
(0.199251 -1.45579e-08 0.034825)
(0.250918 -0.120902 0.0408881)
(0.458355 -0.149708 0.0569216)
(0.537761 -0.0899991 0.0678906)
(0.565499 -0.0288062 0.0727964)
(0.479953 0.0239004 0.208213)
(0.457438 0.0741243 0.195025)
(0.392855 0.122706 0.163898)
(0.216412 0.0988052 0.11185)
(0.174344 -1.51155e-08 0.0939122)
(0.216412 -0.0988053 0.11185)
(0.392855 -0.122706 0.163898)
(0.457438 -0.0741243 0.195025)
(0.479953 -0.0239004 0.208213)
(0.239898 0.0156177 0.244147)
(0.22718 0.0456839 0.229121)
(0.197365 0.0665337 0.194719)
(0.147405 0.050916 0.139206)
(0.130308 -1.5484e-08 0.119831)
(0.147405 -0.050916 0.139206)
(0.197365 -0.0665337 0.194719)
(0.22718 -0.0456839 0.229121)
(0.239898 -0.0156177 0.244147)
(0.133227 0.00887388 0.185583)
(0.127036 0.0246962 0.174629)
(0.114588 0.0327907 0.152435)
(0.0986609 0.0239168 0.123778)
(0.092405 -1.57117e-08 0.112539)
(0.0986609 -0.0239168 0.123778)
(0.114588 -0.0327907 0.152435)
(0.127036 -0.0246963 0.174629)
(0.133227 -0.00887389 0.185583)
(0.0807177 0.00466311 0.129743)
(0.0778798 0.0125352 0.123214)
(0.0727374 0.0156834 0.111208)
(0.0671147 0.0110202 0.0978511)
(0.0648102 -1.57208e-08 0.092375)
(0.0671147 -0.0110203 0.0978511)
(0.0727374 -0.0156834 0.111208)
(0.0778798 -0.0125352 0.123214)
(0.0807177 -0.00466311 0.129743)
(0.0520019 0.00234432 0.0892682)
(0.0507271 0.00616104 0.0857541)
(0.0485662 0.00742797 0.0797098)
(0.0464114 0.00508365 0.0735786)
(0.0455253 -1.55176e-08 0.0710484)
(0.0464114 -0.00508368 0.0735786)
(0.0485662 -0.007428 0.0797098)
(0.0507271 -0.00616106 0.0857541)
(0.0520019 -0.00234432 0.0892682)
(0.0348317 0.00114897 0.0615428)
(0.0342598 0.00297674 0.0597534)
(0.0333296 0.00350791 0.0568067)
(0.0324505 0.00235893 0.0539813)
(0.0320922 -1.50942e-08 0.052824)
(0.0324505 -0.00235896 0.0539813)
(0.0333296 -0.00350793 0.0568067)
(0.0342598 -0.00297675 0.0597534)
(0.0348317 -0.00114897 0.0615428)
(0.0238774 0.0005549 0.0426824)
(0.0236191 0.00142491 0.0417993)
(0.0232093 0.00165589 0.0403845)
(0.0228338 0.00110099 0.0390736)
(0.0226823 -1.4489e-08 0.038542)
(0.0228338 -0.00110101 0.0390736)
(0.0232093 -0.00165591 0.0403845)
(0.0236191 -0.00142492 0.0417993)
(0.0238774 -0.000554904 0.0426824)
(0.0165877 0.000265806 0.0297739)
(0.0164699 0.000678831 0.029346)
(0.0162858 0.000782188 0.0286722)
(0.01612 0.00051638 0.0280605)
(0.0160536 -1.36991e-08 0.0278147)
(0.01612 -0.000516405 0.0280605)
(0.0162858 -0.00078221 0.0286722)
(0.0164699 -0.000678844 0.029346)
(0.0165877 -0.00026581 0.0297739)
(0.0116101 0.00012696 0.0208662)
(0.0115558 0.000323165 0.0206614)
(0.0114716 0.000370471 0.0203425)
(0.0113966 0.000243513 0.0200566)
(0.0113667 -1.27646e-08 0.0199424)
(0.0113966 -0.000243537 0.0200566)
(0.0114716 -0.000370491 0.0203425)
(0.0115558 -0.000323177 0.0206614)
(0.0116101 -0.000126963 0.0208662)
(0.00815897 6.10464e-05 0.0146757)
(0.00813346 0.000155125 0.0145793)
(0.00809405 0.000177381 0.0144301)
(0.00805907 0.000116352 0.0142977)
(0.00804516 -1.16849e-08 0.0142451)
(0.00805907 -0.000116374 0.0142977)
(0.00809405 -0.000177399 0.0144301)
(0.00813346 -0.000155136 0.0145793)
(0.00815898 -6.10501e-05 0.0146757)
(0.00574398 3.04857e-05 0.0103509)
(0.00573129 7.75523e-05 0.0103074)
(0.00571162 8.88891e-05 0.0102408)
(0.005694 5.84961e-05 0.0101827)
(0.0056869 -1.04982e-08 0.0101602)
(0.005694 -5.85158e-05 0.0101827)
(0.00571162 -8.89052e-05 0.0102408)
(0.0057313 -7.75625e-05 0.0103074)
(0.00574398 -3.0489e-05 0.0103509)
(0.00404403 1.74881e-05 0.00731788)
(0.00403638 4.50082e-05 0.0073014)
(0.00402405 5.27572e-05 0.00727781)
(0.00401221 3.57169e-05 0.00725991)
(0.00400691 -9.20956e-09 0.00725478)
(0.00401221 -3.57342e-05 0.00725992)
(0.00402405 -5.27713e-05 0.00727781)
(0.00403638 -4.50173e-05 0.0073014)
(0.00404403 -1.74911e-05 0.00731788)
(0.00284224 1.40049e-05 0.00518385)
(0.00283507 3.74822e-05 0.00518292)
(0.00282207 4.74065e-05 0.00518616)
(0.00280684 3.54698e-05 0.00519809)
(0.00279757 -7.8535e-09 0.00521089)
(0.00280684 -3.54845e-05 0.00519809)
(0.00282207 -4.74184e-05 0.00518616)
(0.00283507 -3.74898e-05 0.00518293)
(0.00284225 -1.40075e-05 0.00518385)
(0.00198975 1.65658e-05 0.00367575)
(0.00197931 4.73187e-05 0.00368468)
(0.00195709 6.7924e-05 0.00370867)
(0.00192303 6.04484e-05 0.00375435)
(0.00189166 -6.40561e-09 0.00380381)
(0.00192303 -6.04604e-05 0.00375435)
(0.00195709 -6.79337e-05 0.00370868)
(0.00197932 -4.73251e-05 0.00368468)
(0.00198975 -1.65681e-05 0.00367576)
(0.00138424 2.29285e-05 0.00260159)
(0.00136704 7.04032e-05 0.00261388)
(0.00132356 0.000117077 0.00264873)
(0.00123381 0.000130605 0.00272802)
(0.00109561 -4.91335e-09 0.00285796)
(0.00123381 -0.000130615 0.00272802)
(0.00132356 -0.000117085 0.00264874)
(0.00136705 -7.0408e-05 0.00261389)
(0.00138424 -2.29302e-05 0.0026016)
(0.000956521 2.88593e-05 0.00182821)
(0.000932028 9.44644e-05 0.00183253)
(0.000858772 0.000182059 0.00184604)
(0.000645948 0.00026967 0.00188058)
(-4.7715e-05 -3.54311e-09 0.00194535)
(0.000645948 -0.000269677 0.00188058)
(0.000858773 -0.000182064 0.00184604)
(0.000932029 -9.4468e-05 0.00183254)
(0.000956523 -2.88607e-05 0.00182822)
(0.000660015 2.72431e-05 0.00127076)
(0.000637282 8.82276e-05 0.00126157)
(0.000571637 0.000165129 0.00123647)
(0.000394458 0.000229919 0.00117818)
(-0.000113358 -2.28634e-09 0.00107344)
(0.000394458 -0.000229924 0.00117818)
(0.000571638 -0.000165132 0.00123647)
(0.000637283 -8.82297e-05 0.00126158)
(0.000660017 -2.72439e-05 0.00127077)
(0.000457554 1.96717e-05 0.000876283)
(0.000442827 6.01745e-05 0.000861074)
(0.000406378 9.86642e-05 0.000822893)
(0.000334517 0.000106643 0.000746808)
(0.000232047 -1.14001e-09 0.000638601)
(0.000334517 -0.000106645 0.000746811)
(0.000406379 -9.86655e-05 0.000822897)
(0.000442828 -6.01755e-05 0.00086108)
(0.000457555 -1.96722e-05 0.00087629)
(0.000319105 1.20339e-05 0.000603443)
(0.000311138 3.48376e-05 0.000590433)
(0.000294009 5.08641e-05 0.000561745)
(0.000267869 4.56271e-05 0.000516534)
(0.000244569 1.49123e-11 0.000474742)
(0.00026787 -4.56269e-05 0.000516536)
(0.000294009 -5.08635e-05 0.000561749)
(0.000311139 -3.48374e-05 0.000590439)
(0.000319106 -1.2034e-05 0.000603449)
(0.000223636 6.66218e-06 0.000416876)
(0.000219701 1.84768e-05 0.000408312)
(0.000212119 2.47649e-05 0.000391372)
(0.000202563 1.96396e-05 0.000369244)
(0.000196418 1.12364e-09 0.000354403)
(0.000202563 -1.96374e-05 0.000369246)
(0.000212119 -2.47628e-05 0.000391376)
(0.000219702 -1.84758e-05 0.000408318)
(0.000223637 -6.6621e-06 0.000416882)
(0.000157264 3.4704e-06 0.000289389)
(0.000155406 9.33366e-06 0.000284467)
(0.000152097 1.17958e-05 0.000275497)
(0.000148451 8.65819e-06 0.000265277)
(0.000146557 2.13668e-09 0.000259761)
(0.000148451 -8.65406e-06 0.000265279)
(0.000152097 -1.17922e-05 0.0002755)
(0.000155406 -9.33156e-06 0.000284472)
(0.000157265 -3.46996e-06 0.000289394)
(0.000110848 1.74047e-06 0.000201834)
(0.000109988 4.58452e-06 0.000199215)
(0.000108536 5.57437e-06 0.000194713)
(0.000107073 3.90405e-06 0.000190045)
(0.000106403 3.04278e-09 0.000187844)
(0.000107073 -3.89822e-06 0.000190047)
(0.000108536 -5.5694e-06 0.000194716)
(0.000109988 -4.58174e-06 0.000199219)
(0.00011085 -1.73988e-06 0.000201839)
(7.82672e-05 8.51441e-07 0.000141292)
(7.78715e-05 2.21297e-06 0.000139959)
(7.7227e-05 2.62605e-06 0.000137759)
(7.66123e-05 1.78914e-06 0.000135615)
(7.63498e-05 3.82892e-09 0.000134681)
(7.66121e-05 -1.78184e-06 0.000135617)
(7.72267e-05 -2.61982e-06 0.000137762)
(7.78712e-05 -2.20929e-06 0.000139963)
(7.82681e-05 -8.50519e-07 0.000141296)
(5.53482e-05 4.07774e-07 9.91529e-05)
(5.5167e-05 1.05196e-06 9.84897e-05)
(5.48779e-05 1.23081e-06 9.74244e-05)
(5.4611e-05 8.26046e-07 9.64272e-05)
(5.45011e-05 4.49684e-09 9.60116e-05)
(5.46107e-05 -8.17489e-07 9.64285e-05)
(5.48774e-05 -1.2236e-06 9.74267e-05)
(5.51667e-05 -1.04775e-06 9.84928e-05)
(5.53492e-05 -4.06716e-07 9.91564e-05)
(3.92111e-05 1.88197e-07 6.96569e-05)
(3.91291e-05 4.84491e-07 6.93245e-05)
(3.89991e-05 5.63606e-07 6.88001e-05)
(3.88813e-05 3.76281e-07 6.83225e-05)
(3.88337e-05 5.04105e-09 6.81286e-05)
(3.8881e-05 -3.66699e-07 6.83234e-05)
(3.89985e-05 -5.55499e-07 6.8802e-05)
(3.91286e-05 -4.79595e-07 6.93269e-05)
(3.9212e-05 -1.86867e-07 6.96598e-05)
(2.78506e-05 7.5305e-08 4.89111e-05)
(2.78143e-05 1.95178e-07 4.87295e-05)
(2.7756e-05 2.28822e-07 4.84457e-05)
(2.77041e-05 1.54495e-07 4.81943e-05)
(2.76834e-05 5.46676e-09 4.80946e-05)
(2.77038e-05 -1.44118e-07 4.8195e-05)
(2.77555e-05 -2.20104e-07 4.84471e-05)
(2.78138e-05 -1.89943e-07 4.87314e-05)
(2.78515e-05 -7.38781e-08 4.89133e-05)
(1.98627e-05 6.59445e-09 3.42589e-05)
(1.98447e-05 1.90735e-08 3.41277e-05)
(1.98133e-05 2.83976e-08 3.39175e-05)
(1.97878e-05 2.52164e-08 3.37439e-05)
(1.97783e-05 5.78416e-09 3.36783e-05)
(1.97875e-05 -1.42484e-08 3.37444e-05)
(1.98126e-05 -1.91611e-08 3.39185e-05)
(1.98441e-05 -1.33849e-08 3.41291e-05)
(1.98634e-05 -4.95846e-09 3.42605e-05)
(1.42597e-05 -5.59119e-08 2.38805e-05)
(1.42369e-05 -1.46299e-07 2.37347e-05)
(1.4185e-05 -1.55028e-07 2.34676e-05)
(1.41554e-05 -8.46321e-08 2.32839e-05)
(1.41468e-05 6.00955e-09 2.3222e-05)
(1.41551e-05 9.60089e-08 2.32843e-05)
(1.41844e-05 1.64545e-07 2.34683e-05)
(1.42364e-05 1.5214e-07 2.37356e-05)
(1.42604e-05 5.76029e-08 2.38816e-05)
(1.03494e-05 -1.39208e-07 1.65351e-05)
(1.02815e-05 -3.9383e-07 1.63449e-05)
(1.00694e-05 -4.22434e-07 1.58526e-05)
(9.98253e-06 -2.20414e-07 1.56173e-05)
(9.96235e-06 6.15743e-09 1.55528e-05)
(9.98229e-06 2.32071e-07 1.56175e-05)
(1.0069e-05 4.32185e-07 1.58531e-05)
(1.02811e-05 3.99879e-07 1.63455e-05)
(1.03501e-05 1.41005e-07 1.65357e-05)
(7.67239e-06 -2.46048e-07 1.13683e-05)
(7.50866e-06 -8.28763e-07 1.12462e-05)
(6.53225e-06 -8.82662e-07 1.03716e-05)
(6.29093e-06 -3.84394e-07 1.02071e-05)
(6.24457e-06 6.21381e-09 1.01845e-05)
(6.29085e-06 3.96229e-07 1.0207e-05)
(6.53239e-06 8.92557e-07 1.03717e-05)
(7.50897e-06 8.34735e-07 1.12464e-05)
(7.67323e-06 2.47746e-07 1.13682e-05)
(5.99411e-06 -2.61334e-07 7.62737e-06)
(6.10427e-06 -1.39055e-06 7.90347e-06)
(1.19706e-06 -1.46147e-06 8.53067e-06)
(1.06156e-06 -4.07521e-07 8.86897e-06)
(1.04215e-06 6.05852e-09 8.96797e-06)
(1.06165e-06 4.19328e-07 8.86808e-06)
(1.19748e-06 1.47159e-06 8.52918e-06)
(6.10549e-06 1.3964e-06 7.90208e-06)
(5.9948e-06 2.62808e-07 7.62645e-06)
(4.98048e-06 3.00526e-08 4.48005e-06)
(5.27825e-06 7.45383e-08 4.89932e-06)
(6.38816e-06 8.28308e-08 6.358e-06)
(6.78681e-06 5.29047e-08 6.85828e-06)
(6.88569e-06 5.33123e-09 6.98298e-06)
(6.78551e-06 -4.2565e-08 6.85719e-06)
(6.3859e-06 -7.34475e-08 6.3558e-06)
(5.27671e-06 -6.79967e-08 4.89711e-06)
(4.98042e-06 -2.78858e-08 4.47917e-06)
(4.47851e-06 1.57931e-07 1.47308e-06)
(4.79703e-06 4.87407e-07 1.60095e-06)
(5.8766e-06 4.97501e-07 1.88594e-06)
(6.17097e-06 2.17458e-07 2.01562e-06)
(6.23523e-06 4.96094e-09 2.0505e-06)
(6.1696e-06 -2.07858e-07 2.01525e-06)
(5.87375e-06 -4.88483e-07 1.8852e-06)
(4.79516e-06 -4.8023e-07 1.60022e-06)
(4.47823e-06 -1.55133e-07 1.47297e-06)
(0.410733 0.0155995 0.0375641)
(0.388492 0.045106 0.0350844)
(0.33894 0.0640457 0.0301376)
(0.262734 0.0484461 0.0240568)
(0.235423 -1.40306e-08 0.0215896)
(0.262734 -0.0484462 0.0240568)
(0.33894 -0.0640457 0.0301376)
(0.388492 -0.045106 0.0350844)
(0.410733 -0.0155996 0.0375641)
(0.353692 0.0131199 0.101748)
(0.335378 0.0376794 0.0952224)
(0.294977 0.0530181 0.0819416)
(0.232786 0.0398982 0.0648421)
(0.2107 -1.44733e-08 0.0580868)
(0.232786 -0.0398982 0.0648421)
(0.294977 -0.0530181 0.0819416)
(0.335378 -0.0376795 0.0952224)
(0.353692 -0.0131199 0.101748)
(0.244713 0.00907402 0.125547)
(0.233102 0.0252996 0.117901)
(0.209897 0.0336654 0.102695)
(0.180348 0.0245913 0.0836526)
(0.168754 -1.47626e-08 0.0760917)
(0.180348 -0.0245914 0.0836526)
(0.209897 -0.0336654 0.102695)
(0.233102 -0.0252996 0.117901)
(0.244713 -0.00907403 0.125547)
(0.163374 0.00547427 0.110109)
(0.157019 0.0148273 0.10406)
(0.145388 0.0187697 0.0928226)
(0.132487 0.0132954 0.080175)
(0.12721 -1.493e-08 0.0749865)
(0.132487 -0.0132954 0.080175)
(0.145388 -0.0187697 0.0928226)
(0.157019 -0.0148273 0.10406)
(0.163374 -0.00547427 0.110109)
(0.10977 0.00302524 0.0847131)
(0.106552 0.00801353 0.08082)
(0.101025 0.00978049 0.074009)
(0.0954215 0.00675525 0.0669584)
(0.0931131 -1.49066e-08 0.0640406)
(0.0954215 -0.00675528 0.0669584)
(0.101025 -0.00978051 0.074009)
(0.106552 -0.00801354 0.08082)
(0.10977 -0.00302524 0.0847131)
(0.0748164 0.00158113 0.0617074)
(0.0732498 0.00412314 0.0594796)
(0.0706727 0.00490811 0.0557516)
(0.0682026 0.00332697 0.0521084)
(0.067192 -1.46907e-08 0.0506082)
(0.0682026 -0.003327 0.0521084)
(0.0706727 -0.00490813 0.0557516)
(0.0732498 -0.00412316 0.0594796)
(0.0748164 -0.00158114 0.0617074)
(0.0516353 0.000797465 0.0439428)
(0.0508876 0.00205775 0.0427548)
(0.0496909 0.00240929 0.0408271)
(0.0485828 0.00161182 0.0390137)
(0.0481339 -1.42786e-08 0.038274)
(0.0485828 -0.00161185 0.0390137)
(0.0496909 -0.00240931 0.0408271)
(0.0508876 -0.00205776 0.0427548)
(0.0516353 -0.000797469 0.0439428)
(0.0359563 0.000393155 0.0310261)
(0.0356026 0.00100749 0.0304197)
(0.0350461 0.001167 0.0294559)
(0.0345414 0.000773843 0.0285712)
(0.0343386 -1.36939e-08 0.0282138)
(0.0345414 -0.000773869 0.0285712)
(0.0350461 -0.00116702 0.0294559)
(0.0356026 -0.00100751 0.0304197)
(0.0359563 -0.00039316 0.0310261)
(0.0251846 0.000191085 0.0218538)
(0.0250178 0.000487496 0.0215529)
(0.024758 0.000560807 0.0210809)
(0.0245253 0.000369719 0.0206545)
(0.0244325 -1.29442e-08 0.0204835)
(0.0245253 -0.000369743 0.0206545)
(0.024758 -0.000560827 0.0210809)
(0.0250178 -0.000487509 0.0215529)
(0.0251846 -0.000191089 0.0218538)
(0.0177032 9.21927e-05 0.0153955)
(0.0176243 0.000234545 0.0152491)
(0.0175024 0.000268658 0.0150214)
(0.017394 0.000176465 0.0148178)
(0.0173509 -1.20528e-08 0.0147366)
(0.017394 -0.000176488 0.0148178)
(0.0175024 -0.000268677 0.0150214)
(0.0176243 -0.000234557 0.0152491)
(0.0177032 -9.21966e-05 0.0153955)
(0.012469 4.4617e-05 0.0108581)
(0.0124314 0.000113339 0.0107882)
(0.0123734 0.000129531 0.0106803)
(0.012322 8.49212e-05 0.0105845)
(0.0123015 -1.10305e-08 0.0105465)
(0.012322 -8.49419e-05 0.0105845)
(0.0123734 -0.000129548 0.0106803)
(0.0124314 -0.00011335 0.0107882)
(0.012469 -4.46206e-05 0.0108581)
(0.00878906 2.23131e-05 0.00766932)
(0.0087703 5.67222e-05 0.00763734)
(0.00874131 6.49267e-05 0.00758838)
(0.0087155 4.26547e-05 0.00754548)
(0.00870518 -9.89529e-09 0.00752868)
(0.0087155 -4.26733e-05 0.00754549)
(0.00874131 -6.49419e-05 0.00758838)
(0.00877031 -5.67319e-05 0.00763734)
(0.00878906 -2.23163e-05 0.00766933)
(0.00619262 1.26332e-05 0.00542575)
(0.00618171 3.23926e-05 0.0054131)
(0.00616443 3.76768e-05 0.00539452)
(0.00614842 2.52272e-05 0.00537946)
(0.00614166 -8.66391e-09 0.00537424)
(0.00614842 -2.52434e-05 0.00537946)
(0.00616443 -3.76901e-05 0.00539453)
(0.00618171 -3.24012e-05 0.0054131)
(0.00619262 -1.26361e-05 0.00542576)
(0.00435544 9.66035e-06 0.0038442)
(0.00434629 2.54923e-05 0.0038422)
(0.00433065 3.12896e-05 0.00384124)
(0.00431417 2.23761e-05 0.00384403)
(0.00430582 -7.35322e-09 0.00384765)
(0.00431417 -2.23899e-05 0.00384403)
(0.00433065 -3.13008e-05 0.00384125)
(0.00434629 -2.54996e-05 0.00384221)
(0.00435544 -9.66284e-06 0.00384421)
(0.00305265 1.0637e-05 0.00272532)
(0.00304114 2.94378e-05 0.0027294)
(0.00301903 3.95032e-05 0.00273981)
(0.00299083 3.1637e-05 0.00275723)
(0.00297184 -5.97814e-09 0.00277168)
(0.00299083 -3.16481e-05 0.00275723)
(0.00301903 -3.95123e-05 0.00273981)
(0.00304114 -2.94437e-05 0.00272941)
(0.00305265 -1.06391e-05 0.00272533)
(0.00212852 1.37397e-05 0.00192844)
(0.00211178 3.99751e-05 0.00193424)
(0.00207552 5.91182e-05 0.00194874)
(0.00201865 5.42462e-05 0.00197471)
(0.00196456 -4.59151e-09 0.00200158)
(0.00201865 -5.42548e-05 0.00197471)
(0.00207552 -5.91251e-05 0.00194875)
(0.00211178 -3.99796e-05 0.00193425)
(0.00212852 -1.37413e-05 0.00192844)
(0.0014761 1.64436e-05 0.00135599)
(0.0014544 4.97447e-05 0.00135785)
(0.00140226 7.99667e-05 0.001363)
(0.0013022 8.44764e-05 0.00137328)
(0.00115903 -3.33418e-09 0.0013853)
(0.0013022 -8.44826e-05 0.00137328)
(0.00140227 -7.99715e-05 0.00136301)
(0.0014544 -4.97476e-05 0.00135786)
(0.0014761 -1.64446e-05 0.001356)
(0.00102136 1.56057e-05 0.000944381)
(0.00100092 4.69888e-05 0.0009397)
(0.000952715 7.45405e-05 0.000928872)
(0.000863979 7.65406e-05 0.000910165)
(0.000747447 -2.16033e-09 0.000890054)
(0.000863979 -7.65445e-05 0.000910167)
(0.000952716 -7.45433e-05 0.000928877)
(0.00100092 -4.69904e-05 0.000939706)
(0.00102136 -1.56062e-05 0.000944388)
(0.000708182 1.17629e-05 0.000652616)
(0.000693788 3.42361e-05 0.000644561)
(0.000662876 5.04317e-05 0.000626818)
(0.000615604 4.5658e-05 0.000599031)
(0.00057298 -1.04532e-09 0.000573866)
(0.000615604 -4.56598e-05 0.000599033)
(0.000662877 -5.04328e-05 0.000626822)
(0.000693788 -3.42367e-05 0.000644566)
(0.000708183 -1.17631e-05 0.000652622)
(0.000493082 7.55081e-06 0.000449853)
(0.000484557 2.11913e-05 0.000442451)
(0.000467885 2.90105e-05 0.000427491)
(0.000446344 2.35881e-05 0.000407357)
(0.000431948 5.13424e-11 0.000393376)
(0.000446344 -2.35878e-05 0.000407359)
(0.000467885 -2.90099e-05 0.000427495)
(0.000484557 -2.11908e-05 0.000442457)
(0.000493083 -7.55072e-06 0.000449859)
(0.000344799 4.3611e-06 0.000310699)
(0.00034023 1.18739e-05 0.000305498)
(0.000331947 1.53367e-05 0.000295762)
(0.000322549 1.15426e-05 0.000284232)
(0.000317464 1.07342e-09 0.000277707)
(0.000322549 -1.15404e-05 0.000284234)
(0.000331947 -1.53347e-05 0.000295765)
(0.00034023 -1.18726e-05 0.000305503)
(0.000344799 -4.36081e-06 0.000310704)
(0.000241983 2.35024e-06 0.000215492)
(0.000239671 6.25459e-06 0.00021234)
(0.000235709 7.74419e-06 0.000206786)
(0.000231609 5.53343e-06 0.000200813)
(0.000229671 2.0133e-09 0.000197876)
(0.000231608 -5.52953e-06 0.000200815)
(0.000235708 -7.74069e-06 0.000206789)
(0.00023967 -6.25236e-06 0.000212345)
(0.000241982 -2.34961e-06 0.000215497)
(0.000170303 1.20966e-06 0.000150139)
(0.000169172 3.16785e-06 0.000148392)
(0.000167306 3.80983e-06 0.000145447)
(0.000165492 2.63275e-06 0.000142492)
(0.0001647 2.8516e-09 0.000141163)
(0.000165491 -2.62727e-06 0.000142494)
(0.000167305 -3.80506e-06 0.00014545)
(0.00016917 -3.16489e-06 0.000148396)