/*--------------------------------*- C++ -*----------------------------------*\
  =========                 |
  \\      /  F ield         | OpenFOAM: The Open Source CFD Toolbox
   \\    /   O peration     | Website:  https://openfoam.org
    \\  /    A nd           | Version:  6
     \\/     M anipulation  |
\*---------------------------------------------------------------------------*/
FoamFile
{
    version     2.0;
    format      ascii;
    class       volScalarField;
    location    "1";
    object      alpha_air;
}
// * * * * * * * * * * * * * * * * * * * * * * * * * * * * * * * * * * * * * //

dimensions      [0 0 0 0 0 0 0];

internalField   nonuniform List<scalar> 
3029
(
1
1
1
1
1.00001
1
1
1
1
1
1
1
1.00001
1.00001
1.00001
1
1
1
1
1
1
1.00001
1.00001
1.00001
1
1
1
1
1.00001
1.00001
1.00002
1.00001
1.00001
1.00001
1.00001
1
1.00001
1.00001
1.00002
1.00002
1
1.00002
1.00001
1.00001
1.00001
1.00001
1.00002
1.00002
1.00002
0.99998
1.00002
1.00001
1.00001
1.00001
1.00002
1.00003
1.00003
1.00002
0.999939
1.00002
1.00002
1.00002
1.00001
1.00002
1.00003
1.00003
1.00001
0.999857
1.00001
1.00002
1.00002
1.00001
1.00002
1.00003
1.00003
0.999978
0.999706
0.999972
1.00001
1.00002
1.00002
1.00002
1.00003
1.00001
0.999893
0.999422
0.999885
0.999997
1.00002
1.00001
1.00001
1.00002
0.999965
0.999735
0.998975
0.999727
0.99995
1
1.00001
0.999989
0.999983
0.999864
0.999283
0.99793
0.999275
0.999849
0.999963
0.999978
0.999919
0.999842
0.99956
0.999072
0.997698
0.999062
0.999543
0.999819
0.999906
0.999755
0.999777
0.999475
0.995381
0.989162
0.995371
0.999457
0.999752
0.99974
0.999475
0.998507
0.995371
1.00399
1.0204
1.00398
0.995352
0.998481
0.999458
0.99833
0.999618
1.01188
0.952599
0.733299
0.952592
1.01186
0.999591
0.998311
0.999069
1.00214
0.917869
0.572831
0.38587
0.572829
0.917855
1.00211
0.999048
1.0014
0.988073
0.770353
0.370053
0.299914
0.370054
0.770343
0.988046
1.00138
1.00184
0.968128
0.680589
0.299766
0.270641
0.299767
0.680582
0.968103
1.00182
0.999484
0.950274
0.635507
0.275797
0.256573
0.275798
0.635501
0.950249
0.999458
0.994728
0.935218
0.612782
0.267047
0.246155
0.267048
0.612776
0.935194
0.994701
0.988003
0.921493
0.599335
0.263119
0.236818
0.26312
0.59933
0.921469
0.987975
0.979491
0.907744
0.589029
0.260519
0.228028
0.26052
0.589024
0.90772
0.979463
0.96919
0.893082
0.579202
0.258064
0.219649
0.258065
0.579197
0.893059
0.969162
0.957021
0.876948
0.568628
0.25533
0.211639
0.255331
0.568623
0.876925
0.956992
0.942895
0.858943
0.556674
0.252169
0.204016
0.252169
0.556669
0.858921
0.942867
0.926769
0.838749
0.542959
0.248613
0.19688
0.248614
0.542953
0.838728
0.926741
0.908661
0.816168
0.527504
0.245088
0.190614
0.245088
0.527498
0.816148
0.908633
0.888676
0.791314
0.510921
0.242773
0.186297
0.242773
0.510915
0.791295
0.888649
0.866933
0.765321
0.496802
0.245083
0.186713
0.245083
0.496797
0.765304
0.866906
0.843943
0.741817
0.490997
0.261331
0.202473
0.261331
0.490991
0.741801
0.843917
0.82035
0.726833
0.492155
0.265772
0.201874
0.265772
0.492149
0.726818
0.820325
0.797263
0.730801
0.524035
0.268582
0.178777
0.268581
0.524028
0.730785
0.797238
0.719377
0.6994
0.584178
0.334234
0.173947
0.334231
0.584167
0.699382
0.719353
1
1
1.00001
1.00001
0.999977
1.00001
1.00001
1
1
1
1.00001
1.00001
1.00001
0.99998
1.00001
1.00001
1
1
1
1.00001
1.00001
1.00002
0.99998
1.00001
1.00001
1.00001
1
1.00001
1.00001
1.00002
1.00002
0.999973
1.00002
1.00001
1.00001
1.00001
1.00001
1.00002
1.00002
1.00002
0.999952
1.00002
1.00002
1.00001
1.00001
1.00002
1.00003
1.00003
1.00002
0.999897
1.00001
1.00002
1.00002
1.00001
1.00003
1.00003
1.00003
0.999997
0.999783
0.99999
1.00002
1.00002
1.00001
1.00003
1.00004
1.00003
0.999941
0.999563
0.999933
1.00001
1.00002
1.00002
1.00003
1.00004
1.00001
0.999816
0.999171
0.999807
0.999992
1.00002
1.00002
1.00003
1.00003
0.999952
0.999562
0.998502
0.999553
0.999936
1.00001
1.00001
1.00002
0.999997
0.999828
0.999093
0.997434
0.999082
0.99981
0.999973
0.999996
0.999982
0.999915
0.999577
0.998239
0.99566
0.998228
0.999557
0.999889
0.999958
0.999841
0.999711
0.999022
0.996839
0.993482
0.996827
0.999001
0.999683
0.999814
0.999775
0.999344
0.998292
0.994505
0.987853
0.994493
0.998269
0.999314
0.999747
0.998506
0.998459
0.995341
0.989734
0.99174
0.989721
0.995318
0.998428
0.998475
0.999616
0.996751
0.997278
0.998098
0.951684
0.998087
0.997254
0.996718
0.999584
1.00214
0.997428
0.982904
0.845679
0.623881
0.845672
0.982882
0.997394
1.0021
0.988069
0.995954
0.935313
0.659157
0.424812
0.659153
0.935294
0.99592
0.988035
0.968125
0.989321
0.890282
0.559293
0.354864
0.559291
0.890265
0.989287
0.968091
0.95027
0.978952
0.857448
0.513311
0.33165
0.51331
0.857432
0.978918
0.950237
0.935215
0.966296
0.833118
0.491478
0.323718
0.491478
0.833103
0.966263
0.935182
0.92149
0.951939
0.81269
0.478934
0.320385
0.478933
0.812675
0.951907
0.921457
0.907741
0.935976
0.793369
0.46938
0.318038
0.469379
0.793354
0.935944
0.907709
0.89308
0.918306
0.773717
0.460496
0.315675
0.460496
0.773704
0.918276
0.893048
0.876946
0.898759
0.753056
0.4515
0.313163
0.451499
0.753043
0.89873
0.876915
0.858942
0.877121
0.731032
0.44237
0.310831
0.442369
0.731019
0.877094
0.858912
0.838748
0.853053
0.70732
0.433647
0.309614
0.433646
0.707309
0.853027
0.83872
0.816167
0.826259
0.682237
0.427193
0.311944
0.427192
0.682226
0.826235
0.81614
0.791314
0.795442
0.654082
0.424964
0.321102
0.424962
0.654071
0.79542
0.791289
0.765322
0.762716
0.633932
0.440766
0.351282
0.440764
0.633922
0.762696
0.765298
0.741818
0.723179
0.58634
0.451712
0.388947
0.451711
0.586333
0.723161
0.741796
0.726834
0.699305
0.565274
0.44996
0.39484
0.449958
0.565267
0.69929
0.726814
0.730803
0.714239
0.569499
0.382641
0.310692
0.382639
0.569491
0.714223
0.730782
0.6994
0.706766
0.614916
0.363827
0.200939
0.363823
0.614904
0.706748
0.699381
1
1.00001
1
1.00005
1.0002
1.00004
1
1.00001
1
1
1.00001
1.00001
1.00005
1.00017
1.00005
1
1.00001
1
1
1.00001
1.00001
1.00005
1.00011
1.00005
1
1.00001
1
1.00001
1.00002
1.00001
1.00004
0.999956
1.00003
1.00001
1.00001
1
1.00001
1.00002
1.00001
0.999991
0.999673
0.999985
1.00001
1.00001
1.00001
1.00002
1.00003
1.00001
0.999876
0.999187
0.999868
1
1.00002
1.00001
1.00002
1.00003
0.999987
0.999642
0.998408
0.999634
0.999976
1.00002
1.00001
1.00003
1.00002
0.999926
0.999213
0.99722
0.999204
0.999913
1.00001
1.00001
1.00002
1
0.999791
0.998483
0.995472
0.998473
0.999776
0.999985
1.00001
1.00001
0.999948
0.999519
0.997301
0.992973
0.99729
0.999503
0.999928
0.999987
0.99996
0.999824
0.999014
0.995464
0.989489
0.995453
0.998996
0.999801
0.999939
0.99986
0.999572
0.998128
0.992722
0.984761
0.992711
0.998108
0.999547
0.999836
0.999555
0.999017
0.996622
0.988723
0.97846
0.988711
0.996601
0.99899
0.99953
0.99947
0.998287
0.994279
0.983493
0.971018
0.983481
0.994258
0.998258
0.999442
0.995365
0.995336
0.990534
0.975381
0.959377
0.975369
0.990511
0.995306
0.995336
1.01188
0.997272
0.985568
0.971511
0.966239
0.971499
0.985545
0.997241
1.01184
0.917862
0.982897
0.980533
0.957736
0.902901
0.957725
0.980509
0.982866
0.917833
0.770347
0.935306
0.971559
0.914483
0.790321
0.914473
0.971535
0.935276
0.770323
0.680584
0.890275
0.958064
0.871647
0.717794
0.871638
0.95804
0.890246
0.680563
0.635502
0.857442
0.941635
0.838292
0.678211
0.838285
0.941612
0.857413
0.635482
0.612778
0.833113
0.923175
0.811632
0.654849
0.811625
0.923152
0.833085
0.612758
0.599331
0.812685
0.902957
0.787906
0.637778
0.787899
0.902936
0.812658
0.599312
0.589026
0.793365
0.880992
0.764913
0.622487
0.764907
0.880971
0.793339
0.589007
0.5792
0.773714
0.857225
0.741428
0.607054
0.741422
0.857206
0.773689
0.579181
0.568627
0.753055
0.831562
0.717008
0.590867
0.717002
0.831544
0.75303
0.568608
0.556673
0.731031
0.80382
0.691545
0.574016
0.69154
0.803803
0.731008
0.556655
0.542959
0.707321
0.773506
0.665
0.556995
0.664996
0.77349
0.707299
0.542942
0.527505
0.682238
0.740186
0.637629
0.541051
0.637625
0.740171
0.682218
0.527489
0.510923
0.654084
0.699603
0.607915
0.52661
0.607911
0.69959
0.654065
0.510907
0.496805
0.633935
0.660279
0.581938
0.521934
0.581935
0.660268
0.633918
0.49679
0.491
0.586342
0.52045
0.481293
0.457032
0.481292
0.520447
0.586331
0.490986
0.492159
0.565276
0.565267
0.492145
0.524039
0.569502
0.585029
0.455939
0.355886
0.455936
0.58502
0.56949
0.524024
0.584181
0.614919
0.614607
0.437254
0.282105
0.43725
0.614595
0.614904
0.584166
0.619608
0.43924
0.266637
0.439235
0.619594
0.614214
0.438146
0.262902
0.438141
0.6142
0.60496
0.433517
0.260621
0.433513
0.604946
0.594285
0.427131
0.258215
0.427127
0.594272
0.583124
0.420022
0.255563
0.420018
0.583111
0.571801
0.412634
0.25274
0.41263
0.571788
0.560439
0.405143
0.249797
0.405139
0.560426
0.549057
0.397595
0.24675
0.397592
0.549045
0.537788
0.390093
0.24365
0.39009
0.537776
0.526134
0.382305
0.240336
0.382302
0.526123
0.516386
0.375778
0.237543
0.375774
0.516375
0.498466
0.363681
0.232066
0.363678
0.498456
1
1.00001
1.00005
0.999483
0.995945
0.999477
1.00004
1.00001
1
1.00001
1.00001
1.00005
0.999387
0.995562
0.999381
1.00004
1.00001
1
1.00001
1.00001
1.00005
0.999152
0.994725
0.999145
1.00004
1.00001
1.00001
1.00001
1.00002
1.00003
0.998722
0.993366
0.998714
1.00003
1.00001
1.00001
1.00002
1.00002
0.999987
0.998022
0.991412
0.998015
0.999978
1.00001
1.00001
1.00002
1.00001
0.999871
0.996953
0.988761
0.996945
0.999861
1
1.00001
1.00002
0.99999
0.999637
0.995386
0.985288
0.995377
0.999625
0.999977
1.00001
1.00001
0.999933
0.999208
0.99316
0.980832
0.99315
0.999194
0.999917
0.999992
0.999971
0.999807
0.998477
0.990076
0.975204
0.990067
0.998463
0.99979
0.999956
0.999884
0.999553
0.997295
0.985898
0.968182
0.985888
0.997279
0.999534
0.999867
0.999726
0.999082
0.995457
0.980351
0.959526
0.980341
0.995441
0.999062
0.999707
0.999274
0.998228
0.992716
0.973148
0.949012
0.973138
0.992698
0.998206
0.999252
0.999061
0.996828
0.988716
0.964033
0.936467
0.964023
0.988698
0.996804
0.999038
0.99537
0.994493
0.983486
0.952978
0.922125
0.952969
0.983467
0.994468
0.995345
1.00398
0.989722
0.975374
0.940277
0.906034
0.940267
0.975355
0.989696
1.00395
0.952587
0.998085
0.971503
0.926616
0.891382
0.926607
0.971483
0.998058
0.952562
0.572825
0.845668
0.957728
0.917559
0.882979
0.91755
0.957707
0.845645
0.572809
0.370051
0.659149
0.914475
0.909189
0.868439
0.909179
0.914453
0.65913
0.370041
0.299765
0.559288
0.871639
0.896072
0.848189
0.896062
0.871618
0.559271
0.299756
0.275796
0.513307
0.838285
0.878381
0.825968
0.878372
0.838265
0.513291
0.275787
0.267046
0.491475
0.811626
0.857455
0.802928
0.857446
0.811606
0.491459
0.267038
0.263119
0.478931
0.787901
0.834203
0.779078
0.834194
0.787881
0.478916
0.26311
0.260518
0.469378
0.764909
0.809069
0.754259
0.809061
0.76489
0.469363
0.26051
0.258064
0.460495
0.741425
0.782319
0.728388
0.782311
0.741407
0.46048
0.258055
0.25533
0.451499
0.717006
0.754015
0.70141
0.754008
0.716989
0.451485
0.255322
0.252169
0.442371
0.691544
0.724082
0.673255
0.724076
0.691528
0.442357
0.252161
0.248614
0.433648
0.665
0.692187
0.643702
0.692181
0.664985
0.433635
0.248606
0.245089
0.427196
0.63763
0.657519
0.612198
0.657514
0.637617
0.427184
0.245081
0.242775
0.424967
0.607916
0.617302
0.576544
0.617298
0.607905
0.424955
0.242767
0.245086
0.44077
0.581939
0.567279
0.533212
0.567277
0.581931
0.440759
0.245078
0.261335
0.451715
0.481293
0.444941
0.425958
0.44494
0.481291
0.451708
0.261327
0.265776
0.449963
0.449957
0.265768
0.268586
0.382644
0.455942
0.467509
0.391913
0.467504
0.455935
0.382638
0.268578
0.334239
0.363832
0.437258
0.459315
0.372533
0.45931
0.437249
0.363822
0.33423
0.439244
0.449618
0.359797
0.449612
0.439234
0.438149
0.440812
0.35149
0.440806
0.438139
0.433521
0.432148
0.344615
0.432143
0.433511
0.427135
0.423465
0.33816
0.423459
0.427125
0.420026
0.414775
0.331818
0.41477
0.420016
0.412638
0.406111
0.32551
0.406106
0.412628
0.405146
0.397495
0.31922
0.397491
0.405137
0.397598
0.388922
0.312936
0.388918
0.39759
0.390096
0.380475
0.306715
0.38047
0.390088
0.382308
0.371802
0.3003
0.371797
0.3823
0.375781
0.364524
0.294891
0.36452
0.375772
0.363684
0.351332
0.285035
0.351328
0.363676
1
0.999973
1.00019
0.995939
0.979865
0.995934
1.00018
0.999969
1
1.00001
0.999974
1.00017
0.995556
0.978933
0.99555
1.00016
0.999969
1
1.00001
0.999973
1.0001
0.994719
0.977031
0.994712
1.00009
0.999967
1
1
0.999965
0.999947
0.99336
0.974156
0.993353
0.999939
0.999958
0.999997
0.999993
0.999942
0.999663
0.991405
0.970317
0.991398
0.999654
0.999933
0.999986
0.999972
0.999886
0.999176
0.988754
0.965482
0.988747
0.999167
0.999876
0.999963
0.999929
0.99977
0.998397
0.985281
0.959578
0.985274
0.998386
0.999759
0.999919
0.999846
0.999549
0.997208
0.980826
0.952484
0.980818
0.997197
0.999536
0.999835
0.999694
0.999157
0.99546
0.975198
0.944043
0.975191
0.995448
0.999142
0.999681
0.999409
0.998487
0.99296
0.968176
0.934068
0.968169
0.992948
0.998471
0.999394
0.998961
0.997418
0.989476
0.95952
0.922359
0.959513
0.989463
0.997401
0.998945
0.997916
0.995644
0.984749
0.949006
0.908739
0.948999
0.984735
0.995625
0.997898
0.997683
0.993466
0.978448
0.936462
0.893104
0.936455
0.978433
0.993446
0.997664
0.989147
0.987836
0.971006
0.92212
0.875557
0.922113
0.970991
0.987816
0.989127
1.02038
0.991723
0.959364
0.906029
0.856657
0.906022
0.959349
0.991702
1.02036
0.733288
0.951668
0.966226
0.891376
0.836927
0.89137
0.966209
0.951646
0.733271
0.385868
0.623873
0.902889
0.882974
0.820057
0.882967
0.902872
0.623857
0.385857
0.299913
0.424808
0.790311
0.868433
0.806465
0.868426
0.790295
0.424796
0.299905
0.27064
0.354861
0.717786
0.848183
0.79196
0.848175
0.717769
0.354851
0.270632
0.256572
0.331648
0.678204
0.825963
0.774906
0.825955
0.678188
0.331638
0.256565
0.246155
0.323716
0.654842
0.802923
0.755447
0.802916
0.654827
0.323706
0.246147
0.236817
0.320383
0.637772
0.779073
0.734083
0.779066
0.637757
0.320373
0.23681
0.228027
0.318037
0.622482
0.754255
0.711146
0.754249
0.622467
0.318026
0.22802
0.219649
0.315674
0.60705
0.728385
0.686977
0.728379
0.607036
0.315664
0.219642
0.211639
0.313162
0.590864
0.701407
0.661682
0.701401
0.590851
0.313152
0.211632
0.204016
0.310831
0.574014
0.673253
0.635227
0.673247
0.574001
0.310821
0.20401
0.19688
0.309614
0.556993
0.6437
0.607396
0.643696
0.556982
0.309605
0.196873
0.190614
0.311945
0.54105
0.612196
0.577641
0.612193
0.541039
0.311936
0.190608
0.186297
0.321103
0.526609
0.576542
0.543931
0.576539
0.5266
0.321095
0.186291
0.186714
0.351284
0.521934
0.533211
0.503478
0.533209
0.521928
0.351276
0.186708
0.202474
0.388949
0.457032
0.425958
0.408846
0.425957
0.457031
0.388943
0.202468
0.201875
0.394841
0.394837
0.201869
0.178779
0.310693
0.355888
0.391915
0.37981
0.391911
0.355883
0.310689
0.178773
0.173949
0.200941
0.282107
0.372534
0.378149
0.37253
0.282102
0.200935
0.173943
0.266639
0.359798
0.372068
0.359793
0.266633
0.262904
0.351491
0.364656
0.351485
0.262898
0.260623
0.344616
0.356897
0.34461
0.260617
0.258217
0.338162
0.349104
0.338155
0.258212
0.255565
0.33182
0.34136
0.331812
0.25556
0.252742
0.325511
0.333695
0.325504
0.252736
0.249798
0.319222
0.326118
0.319214
0.249793
0.246752
0.312937
0.318622
0.312929
0.246747
0.243652
0.306717
0.311268
0.306709
0.243646
0.240338
0.300301
0.303775
0.300294
0.240333
0.237545
0.294892
0.297452
0.294884
0.23754
0.232068
0.285036
0.286225
0.285029
0.232063
1
1
1.00004
0.999471
0.99593
0.999469
1.00004
1
1
1
1.00001
1.00004
0.999375
0.995547
0.999372
1.00004
1
1
1.00001
1.00001
1.00004
0.999138
0.994709
0.999135
1.00004
1
1.00001
1.00001
1.00001
1.00002
0.998707
0.99335
0.998704
1.00002
1.00001
1.00001
1.00001
1.00001
0.999976
0.998007
0.991395
0.998003
0.999971
1
1.00001
1.00001
1
0.999859
0.996937
0.988744
0.996933
0.999853
0.999996
1.00001
1.00001
0.999979
0.999623
0.995369
0.98527
0.995365
0.999617
0.999972
1
0.999996
0.99992
0.999193
0.993142
0.980815
0.993137
0.999186
0.999912
0.999989
0.99996
0.999793
0.998461
0.990059
0.975187
0.990054
0.998453
0.999784
0.999952
0.999873
0.999538
0.997278
0.98588
0.968166
0.985875
0.997269
0.999527
0.999863
0.999713
0.999067
0.99544
0.980332
0.95951
0.980327
0.99543
0.999055
0.999702
0.99926
0.998212
0.992698
0.97313
0.948996
0.973125
0.992688
0.998199
0.999248
0.999047
0.996811
0.988698
0.964016
0.936452
0.96401
0.988687
0.996797
0.999034
0.995355
0.994476
0.983467
0.952961
0.922111
0.952956
0.983457
0.994461
0.995341
1.00397
0.989705
0.975356
0.94026
0.90602
0.940255
0.975345
0.989689
1.00395
0.952576
0.99807
0.971486
0.9266
0.891368
0.926595
0.971474
0.998052
0.952559
0.572822
0.845658
0.957712
0.917543
0.882965
0.917538
0.957699
0.845641
0.572809
0.370051
0.659143
0.914461
0.909173
0.868424
0.909167
0.914447
0.659128
0.370041
0.299766
0.559284
0.871627
0.896056
0.848174
0.896051
0.871613
0.55927
0.299757
0.275796
0.513304
0.838274
0.878366
0.825954
0.878361
0.83826
0.513291
0.275788
0.267047
0.491472
0.811616
0.857441
0.802915
0.857436
0.811601
0.491459
0.267038
0.263119
0.478928
0.787891
0.83419
0.779066
0.834185
0.787877
0.478915
0.263111
0.260518
0.469374
0.764899
0.809057
0.754248
0.809053
0.764886
0.469362
0.26051
0.258063
0.460491
0.741416
0.782308
0.728379
0.782304
0.741403
0.460479
0.258055
0.255329
0.451495
0.716997
0.754005
0.701401
0.754001
0.716984
0.451483
0.255321
0.252168
0.442366
0.691535
0.724074
0.673248
0.72407
0.691524
0.442354
0.25216
0.248612
0.433643
0.664992
0.692179
0.643696
0.692176
0.664981
0.433632
0.248605
0.245087
0.42719
0.637622
0.657512
0.612193
0.65751
0.637613
0.42718
0.24508
0.242772
0.424961
0.607909
0.617297
0.57654
0.617295
0.607901
0.424951
0.242764
0.245083
0.440764
0.581934
0.567276
0.533209
0.567275
0.581928
0.440755
0.245075
0.26133
0.45171
0.481292
0.44494
0.425957
0.44494
0.481291
0.451705
0.261324
0.265771
0.449958
0.449954
0.265765
0.26858
0.382639
0.455937
0.467505
0.391914
0.467503
0.455932
0.382634
0.268573
0.33423
0.363823
0.43725
0.459311
0.372532
0.459308
0.437244
0.363817
0.334224
0.439235
0.449613
0.359796
0.44961
0.439229
0.438142
0.440807
0.351488
0.440803
0.438135
0.433514
0.432144
0.344612
0.43214
0.433507
0.427128
0.42346
0.338157
0.423456
0.427122
0.420019
0.414771
0.331814
0.414767
0.420013
0.412631
0.406107
0.325506
0.406103
0.412625
0.40514
0.397492
0.319216
0.397487
0.405134
0.397593
0.388919
0.312932
0.388915
0.397587
0.390091
0.380472
0.306711
0.380468
0.390085
0.382303
0.371798
0.300296
0.371795
0.382298
0.375776
0.364521
0.294886
0.364517
0.37577
0.363679
0.351329
0.285031
0.351326
0.363674
1
1
0.999998
1.00004
1.00018
1.00004
0.999997
1
1
1
1.00001
0.999999
1.00004
1.00016
1.00004
0.999998
1
1
1
1.00001
1
1.00004
1.00009
1.00004
0.999999
1.00001
1
1
1.00001
1
1.00002
0.999936
1.00002
0.999999
1.00001
1
1.00001
1.00001
1
0.999973
0.999652
0.999971
0.999998
1.00001
1.00001
1.00001
1.00001
0.999993
0.999855
0.999164
0.999853
0.99999
1.00001
1.00001
1.00001
1.00001
0.999968
0.999619
0.998383
0.999616
0.999964
1.00001
1.00001
1.00001
1
0.999904
0.999188
0.997193
0.999185
0.9999
0.999999
1.00001
1.00001
0.999981
0.999767
0.998456
0.995444
0.998453
0.999761
0.999975
1
0.999987
0.999924
0.999493
0.997272
0.992944
0.997269
0.999487
0.999917
0.99998
0.999939
0.999798
0.998986
0.995434
0.989459
0.99543
0.99898
0.99979
0.999932
0.999837
0.999544
0.998098
0.992691
0.984732
0.992688
0.998091
0.999535
0.999828
0.999531
0.998987
0.996591
0.988691
0.978431
0.988687
0.996583
0.998978
0.999521
0.999444
0.998256
0.994247
0.98346
0.970988
0.983456
0.994239
0.998245
0.999433
0.995338
0.995304
0.990501
0.975349
0.959346
0.975345
0.990493
0.995293
0.995327
1.01185
0.997241
0.985535
0.971477
0.966207
0.971473
0.985526
0.997228
1.01184
0.917842
0.982868
0.980499
0.957702
0.902871
0.957698
0.98049
0.982855
0.917828
0.770333
0.935281
0.971526
0.91445
0.790295
0.914447
0.971517
0.935267
0.770319
0.680573
0.890253
0.958032
0.871615
0.71777
0.871613
0.958023
0.890238
0.68056
0.635493
0.857421
0.941604
0.838263
0.678189
0.838261
0.941595
0.857406
0.635481
0.612769
0.833093
0.923145
0.811604
0.654828
0.811603
0.923136
0.833079
0.612756
0.599323
0.812666
0.902929
0.78788
0.637759
0.787879
0.902921
0.812652
0.59931
0.589017
0.793346
0.880965
0.764889
0.622469
0.764888
0.880957
0.793332
0.589005
0.57919
0.773696
0.857201
0.741406
0.607038
0.741405
0.857193
0.773683
0.579178
0.568617
0.753037
0.83154
0.716988
0.590853
0.716987
0.831532
0.753024
0.568605
0.556663
0.731014
0.8038
0.691528
0.574004
0.691527
0.803792
0.731001
0.556651
0.542949
0.707305
0.773487
0.664986
0.556985
0.664985
0.77348
0.707293
0.542937
0.527494
0.682223
0.74017
0.637617
0.541042
0.637617
0.740164
0.682212
0.527484
0.510912
0.65407
0.699589
0.607906
0.526604
0.607905
0.699583
0.65406
0.510901
0.496794
0.633922
0.660268
0.581932
0.521931
0.581932
0.660264
0.633913
0.496784
0.490989
0.586333
0.520447
0.481292
0.457031
0.481292
0.520446
0.586327
0.49098
0.492148
0.565268
0.565263
0.492139
0.524027
0.569492
0.585021
0.455936
0.355886
0.455936
0.585018
0.569486
0.524018
0.58417
0.614907
0.614598
0.43725
0.282105
0.437249
0.614593
0.6149
0.584162
0.619598
0.439235
0.266636
0.439234
0.619592
0.614204
0.438141
0.262901
0.43814
0.614199
0.60495
0.433513
0.26062
0.433512
0.604945
0.594275
0.427127
0.258215
0.427126
0.59427
0.583114
0.420018
0.255563
0.420017
0.583109
0.571792
0.41263
0.252739
0.412629
0.571787
0.56043
0.405138
0.249796
0.405138
0.560425
0.549048
0.397591
0.24675
0.397591
0.549044
0.537779
0.390089
0.243649
0.390089
0.537775
0.526126
0.382301
0.240335
0.382301
0.526121
0.516378
0.375774
0.237542
0.375774
0.516374
0.498459
0.363677
0.232065
0.363677
0.498455
1
1
1
1
0.999968
1
1
1
1
1
1
1
1
0.999968
1
1
1
1
1
1
1.00001
1.00001
0.999965
1
1.00001
1
1
1
1.00001
1.00001
1.00001
0.999956
1.00001
1.00001
1
1
1.00001
1.00001
1.00001
1.00001
0.999931
1
1.00001
1.00001
1
1.00001
1.00001
1.00001
0.999997
0.999874
0.999996
1.00001
1.00001
1.00001
1.00001
1.00001
1.00001
0.999973
0.999757
0.999971
1.00001
1.00001
1.00001
1.00001
1.00002
1
0.999913
0.999534
0.999911
0.999999
1.00001
1.00001
1.00001
1.00001
0.999979
0.999785
0.99914
0.999783
0.999975
1.00001
1.00001
1.00001
1
0.999921
0.999529
0.998469
0.999527
0.999917
0.999994
1
0.999991
0.999964
0.999794
0.999057
0.997399
0.999054
0.99979
0.999957
0.999985
0.999954
0.999879
0.99954
0.998202
0.995623
0.998199
0.999535
0.999872
0.999947
0.99981
0.999673
0.998983
0.9968
0.993444
0.996797
0.998978
0.999665
0.999802
0.999743
0.999304
0.998251
0.994464
0.987814
0.994461
0.998245
0.999296
0.999734
0.998471
0.998418
0.995299
0.989692
0.9917
0.989689
0.995293
0.998409
0.998462
0.999581
0.996708
0.997235
0.998055
0.951645
0.998052
0.997228
0.996699
0.999571
1.0021
0.997385
0.98286
0.845644
0.623859
0.845642
0.982855
0.997375
1.00209
0.988035
0.995911
0.935272
0.659131
0.424799
0.659131
0.935268
0.995901
0.988024
0.968092
0.989279
0.890243
0.559273
0.354854
0.559273
0.890239
0.989268
0.96808
0.950239
0.978911
0.857411
0.513293
0.331641
0.513294
0.857408
0.978901
0.950227
0.935184
0.966256
0.833083
0.491461
0.323709
0.491462
0.833081
0.966246
0.935172
0.921461
0.951901
0.812656
0.478917
0.320376
0.478918
0.812654
0.951891
0.921448
0.907712
0.935939
0.793337
0.469364
0.31803
0.469365
0.793335
0.935929
0.907699
0.893052
0.918272
0.773688
0.460482
0.315667
0.460483
0.773685
0.918262
0.893039
0.876919
0.898727
0.753029
0.451486
0.313155
0.451487
0.753027
0.898717
0.876907
0.858916
0.877092
0.731007
0.442358
0.310825
0.442359
0.731005
0.877082
0.858904
0.838724
0.853026
0.707299
0.433637
0.309608
0.433638
0.707297
0.853017
0.838713
0.816145
0.826235
0.682218
0.427185
0.311939
0.427186
0.682216
0.826227
0.816134
0.791294
0.795422
0.654066
0.424957
0.321099
0.424958
0.654064
0.795414
0.791283
0.765303
0.762698
0.633919
0.440761
0.35128
0.440761
0.633917
0.762691
0.765293
0.741801
0.723164
0.586331
0.451709
0.388946
0.451709
0.58633
0.723158
0.741792
0.726819
0.699292
0.565268
0.449958
0.39484
0.449958
0.565266
0.699288
0.726811
0.730788
0.714226
0.569491
0.382638
0.310692
0.382639
0.56949
0.714221
0.730779
0.699386
0.706754
0.614907
0.363823
0.200938
0.363823
0.614904
0.706749
0.699381
1
1
1
1
1
1
1
1
1
1
1
1
1
1
1
1
1
1
1
1
1
1.00001
1
1.00001
1
1
1
1
1
1
1.00001
0.999996
1.00001
1
1
1
1
1.00001
1.00001
1.00001
0.999985
1.00001
1.00001
1
1
1.00001
1.00001
1.00001
1.00001
0.999962
1.00001
1.00001
1.00001
1
1.00001
1.00001
1.00001
1
0.999918
1
1.00001
1.00001
1
1.00001
1.00001
1.00001
0.99999
0.999833
0.999989
1.00001
1.00001
1.00001
1.00001
1.00001
1
0.999953
0.99968
0.999952
1
1.00001
1.00001
1.00001
1.00001
0.999983
0.999864
0.999393
0.999863
0.99998
1
1
0.999999
0.99999
0.999935
0.999704
0.998944
0.999702
0.999932
0.999985
0.999992
0.999972
0.999952
0.999832
0.99925
0.997897
0.999248
0.999829
0.999947
0.999963
0.999899
0.999808
0.999525
0.999036
0.997663
0.999034
0.999521
0.999802
0.99989
0.999733
0.999741
0.999438
0.995343
0.989126
0.995341
0.999434
0.999734
0.999724
0.999451
0.998469
0.995332
1.00395
1.02036
1.00395
0.995327
0.998462
0.99944
0.998304
0.999578
1.01184
0.95256
0.733272
0.952559
1.01184
0.999571
0.998293
0.999041
1.0021
0.917831
0.572811
0.38586
0.572811
0.917828
1.00209
0.99903
1.00137
0.988031
0.770322
0.370044
0.299908
0.370044
0.770321
0.988024
1.00136
1.00181
0.968087
0.680563
0.29976
0.270636
0.29976
0.680562
0.968081
1.0018
0.999452
0.950233
0.635483
0.275791
0.256568
0.275791
0.635483
0.950227
0.99944
0.994695
0.935178
0.612759
0.267041
0.24615
0.267042
0.612759
0.935173
0.994683
0.98797
0.921455
0.599313
0.263113
0.236813
0.263114
0.599313
0.921449
0.987959
0.979458
0.907706
0.589007
0.260513
0.228023
0.260514
0.589008
0.907701
0.979447
0.969158
0.893046
0.579181
0.258058
0.219645
0.258059
0.579182
0.893041
0.969147
0.956989
0.876914
0.568608
0.255324
0.211635
0.255325
0.568609
0.876908
0.956978
0.942865
0.858911
0.556655
0.252163
0.204012
0.252164
0.556656
0.858906
0.942854
0.926739
0.83872
0.542942
0.248608
0.196876
0.248609
0.542942
0.838715
0.92673
0.908633
0.816141
0.527488
0.245083
0.19061
0.245084
0.527489
0.816136
0.908624
0.888649
0.79129
0.510907
0.242768
0.186294
0.242769
0.510907
0.791286
0.88864
0.866908
0.7653
0.49679
0.245079
0.18671
0.24508
0.49679
0.765296
0.8669
0.843919
0.741798
0.490986
0.261328
0.202471
0.261328
0.490986
0.741795
0.843911
0.820328
0.726816
0.492145
0.265769
0.201872
0.26577
0.492145
0.726813
0.820321
0.797241
0.730785
0.524025
0.268578
0.178776
0.268579
0.524024
0.730781
0.797234
0.719358
0.699386
0.584169
0.33423
0.173946
0.334229
0.584166
0.699382
0.719356
)
;

boundaryField
{
    injectionXMinus
    {
        type            zeroGradient;
    }
    injectionXPlus
    {
        type            zeroGradient;
    }
    injectionYMinus
    {
        type            zeroGradient;
    }
    injectionYPlus
    {
        type            zeroGradient;
    }
    inletXMinus
    {
        type            fixedValue;
        value           uniform 1;
    }
    inletXPlus
    {
        type            fixedValue;
        value           uniform 1;
    }
    inletYMinus
    {
        type            fixedValue;
        value           uniform 1;
    }
    inletYPlus
    {
        type            fixedValue;
        value           uniform 1;
    }
    outlet
    {
        type            zeroGradient;
    }
    valve
    {
        type            zeroGradient;
    }
    walls
    {
        type            zeroGradient;
    }
}


// ************************************************************************* //
