/*--------------------------------*- C++ -*----------------------------------*\
  =========                 |
  \\      /  F ield         | OpenFOAM: The Open Source CFD Toolbox
   \\    /   O peration     | Website:  https://openfoam.org
    \\  /    A nd           | Version:  6
     \\/     M anipulation  |
\*---------------------------------------------------------------------------*/
FoamFile
{
    version     2.0;
    format      ascii;
    class       volScalarField;
    location    "1";
    object      T;
}
// * * * * * * * * * * * * * * * * * * * * * * * * * * * * * * * * * * * * * //

dimensions      [0 0 0 1 0 0 0];

internalField   nonuniform List<scalar> 
3029
(
293.15
293.15
293.15
293.151
293.155
293.151
293.15
293.15
293.15
293.15
293.151
293.151
293.151
293.157
293.151
293.15
293.15
293.15
293.151
293.151
293.152
293.153
293.16
293.152
293.151
293.151
293.151
293.151
293.153
293.153
293.154
293.165
293.153
293.152
293.152
293.151
293.152
293.154
293.155
293.156
293.174
293.155
293.154
293.153
293.152
293.153
293.156
293.157
293.159
293.19
293.158
293.155
293.154
293.153
293.155
293.158
293.16
293.165
293.217
293.163
293.157
293.155
293.154
293.156
293.16
293.163
293.176
293.267
293.174
293.161
293.157
293.155
293.158
293.163
293.17
293.2
293.358
293.198
293.167
293.159
293.157
293.162
293.169
293.184
293.251
293.517
293.249
293.18
293.164
293.16
293.17
293.181
293.212
293.353
293.795
293.351
293.208
293.176
293.167
293.188
293.208
293.28
293.57
294.28
293.567
293.275
293.202
293.184
293.231
293.275
293.413
293.889
294.948
293.886
293.408
293.269
293.227
293.322
293.387
293.695
295.023
297.016
295.02
293.689
293.38
293.318
293.514
293.799
294.591
294.432
294.027
294.429
294.585
293.791
293.509
293.936
293.882
293.113
306.51
344.434
306.507
293.107
293.873
293.931
294.159
294.32
311.122
369.829
399.816
369.827
311.117
294.312
294.153
294.422
298.023
335.51
396.001
402.376
396
335.506
298.015
294.415
295.322
302.724
349.489
403.127
403.116
403.126
349.485
302.715
295.314
296.988
307.136
356.317
404.279
403.229
404.278
356.313
307.128
296.98
299.385
311.311
359.933
403.658
403.095
403.657
359.929
311.302
299.377
302.514
315.624
362.479
402.594
402.839
402.593
362.475
315.614
302.505
306.429
320.392
364.931
401.539
402.517
401.538
364.926
320.383
306.419
311.215
325.833
367.71
400.663
402.168
400.662
367.705
325.823
311.205
316.961
332.089
371.014
400.044
401.823
400.042
371.009
332.079
316.951
323.741
339.254
374.936
399.726
401.506
399.725
374.931
339.244
323.731
331.594
347.381
379.535
399.781
401.283
399.779
379.53
347.371
331.583
340.513
356.45
384.708
400.105
401.03
400.103
384.703
356.44
340.502
350.413
366.378
390.673
401.278
401.432
401.277
390.667
366.368
350.401
361.181
376.872
396.22
401.507
400.353
401.505
396.214
376.862
361.169
372.456
387.303
403.369
406.091
404.461
406.089
403.363
387.293
372.444
385.036
397.279
409.731
410.278
407.742
410.275
409.725
397.269
385.024
399.447
406.741
411.11
404.767
400.272
404.765
411.104
406.731
399.433
445.83
446.917
442.556
420.096
400.227
420.092
442.547
446.904
445.814
293.15
293.151
293.152
293.155
293.18
293.154
293.151
293.151
293.15
293.151
293.152
293.152
293.156
293.182
293.155
293.152
293.151
293.15
293.151
293.153
293.153
293.158
293.186
293.157
293.152
293.152
293.151
293.153
293.154
293.155
293.16
293.194
293.159
293.154
293.153
293.152
293.154
293.156
293.157
293.165
293.211
293.163
293.155
293.154
293.152
293.156
293.158
293.16
293.172
293.246
293.171
293.158
293.155
293.153
293.158
293.161
293.165
293.19
293.315
293.188
293.162
293.157
293.155
293.16
293.164
293.173
293.227
293.444
293.224
293.169
293.159
293.156
293.163
293.169
293.19
293.302
293.67
293.3
293.186
293.164
293.158
293.169
293.18
293.226
293.45
294.05
293.447
293.221
293.173
293.163
293.181
293.203
293.3
293.72
294.664
293.717
293.295
293.196
293.174
293.208
293.255
293.45
294.204
295.635
294.201
293.444
293.247
293.201
293.275
293.369
293.744
294.995
297.026
294.992
293.738
293.361
293.267
293.387
293.592
294.268
296.371
299.431
296.367
294.261
293.583
293.378
293.799
294.069
295.408
298.361
300.616
298.357
295.401
294.059
293.79
293.881
294.864
296.224
299.774
310.358
299.769
296.216
294.854
293.871
294.319
295.666
300.733
327.041
362.885
327.038
300.725
295.656
294.309
298.022
297.402
310.53
355.523
388.818
355.521
310.523
297.391
298.012
302.723
300.335
319.506
369.622
395.973
369.62
319.499
300.324
302.712
307.135
304.127
326.494
375.777
397.298
375.775
326.487
304.116
307.125
311.31
308.592
332.389
378.817
397.104
378.814
332.381
308.581
311.299
315.622
313.726
338.059
380.962
396.729
380.96
338.052
313.715
315.612
320.391
319.604
344.016
383.117
396.618
383.114
344.008
319.593
320.38
325.831
326.316
350.521
385.62
396.913
385.617
350.513
326.304
325.82
332.088
333.947
357.717
388.627
397.69
388.624
357.709
333.935
332.076
339.253
342.567
365.677
392.219
399.013
392.216
365.669
342.555
339.241
347.38
352.284
374.589
396.62
401.128
396.617
374.58
352.272
347.369
356.449
363.017
384.157
401.725
403.991
401.722
384.148
363.005
356.438
366.377
375.497
396.877
410.443
410.867
410.439
396.869
375.485
366.366
376.871
387.385
404.106
415.808
415.214
415.804
404.097
387.373
376.86
387.302
404.719
448.231
468.336
472.761
468.332
448.222
404.708
387.291
397.278
414.73
464.705
489.752
495.618
489.748
464.697
414.72
397.267
406.741
413.756
444.065
462.694
465.688
462.69
444.057
413.746
406.729
446.917
446.136
447.494
430.998
410.192
430.993
447.485
446.123
446.904
293.15
293.152
293.158
293.141
293.065
293.14
293.157
293.151
293.15
293.151
293.152
293.159
293.142
293.081
293.141
293.158
293.151
293.15
293.152
293.153
293.161
293.146
293.123
293.144
293.16
293.152
293.151
293.153
293.155
293.163
293.157
293.211
293.155
293.161
293.153
293.152
293.155
293.157
293.167
293.189
293.375
293.187
293.165
293.155
293.153
293.157
293.16
293.175
293.258
293.653
293.256
293.172
293.157
293.154
293.159
293.164
293.193
293.395
294.097
293.393
293.189
293.16
293.156
293.163
293.172
293.232
293.642
294.772
293.639
293.228
293.168
293.158
293.169
293.189
293.314
294.059
295.763
294.056
293.309
293.184
293.164
293.182
293.225
293.471
294.73
297.178
294.727
293.466
293.219
293.177
293.211
293.299
293.76
295.771
299.148
295.768
293.755
293.292
293.205
293.279
293.449
294.266
297.327
301.828
297.323
294.26
293.442
293.272
293.412
293.743
295.114
299.568
305.351
299.564
295.108
293.735
293.404
293.693
294.267
296.459
302.625
309.76
302.62
296.452
294.258
293.685
294.589
295.406
298.522
306.725
315.105
306.72
298.514
295.397
294.58
293.111
296.222
301.316
310.582
317.582
310.576
301.308
296.212
293.101
311.12
300.731
304.653
316.125
329.204
316.12
304.644
300.721
311.111
335.508
310.528
309.01
325.726
346.323
325.72
309.001
310.519
335.501
349.488
319.504
314.33
335.147
357.715
335.142
314.321
319.494
349.481
356.315
326.492
320.405
343.486
365.21
343.481
320.395
326.483
356.31
359.932
332.387
327.202
351.394
371.355
351.389
327.192
332.377
359.926
362.478
338.058
334.768
359.484
377.455
359.478
334.758
338.048
362.472
364.929
344.014
343.163
368.08
384.048
368.074
343.152
344.004
364.923
367.708
350.519
352.438
377.368
391.374
377.362
352.427
350.509
367.702
371.013
357.716
362.652
387.453
399.565
387.447
362.641
357.706
371.006
374.935
365.676
373.88
398.461
408.775
398.454
373.869
365.666
374.928
379.534
374.587
386.396
410.716
419.403
410.709
386.385
374.577
379.527
384.707
384.156
400.227
424.797
432.264
424.791
400.216
384.145
384.7
390.672
396.877
418.798
443.569
450.641
443.563
418.787
396.866
390.665
396.22
404.106
434.181
467.992
477.343
467.986
434.17
404.096
396.213
403.369
448.231
543.971
570.938
583.818
570.934
543.963
448.221
403.361
409.731
464.705
464.696
409.724
411.11
444.065
455.871
480.806
494.732
480.801
455.863
444.056
411.102
442.556
447.495
453.489
458.753
454.14
458.747
453.48
447.484
442.547
456.182
455.124
444.612
455.118
456.172
460.55
456.755
443.557
456.748
460.539
465.293
459.829
444.966
459.822
465.282
470.154
463.284
447.059
463.276
470.144
475.048
466.845
449.374
466.837
475.038
479.955
470.445
451.779
470.437
479.945
484.865
474.064
454.24
474.057
484.854
489.783
477.707
456.754
477.699
489.772
494.657
481.33
459.283
481.323
494.646
499.701
485.106
461.97
485.099
499.69
503.926
488.261
464.195
488.253
503.916
511.682
494.168
468.574
494.161
511.671
293.151
293.155
293.14
293.469
295.477
293.467
293.139
293.154
293.151
293.151
293.155
293.142
293.526
295.696
293.524
293.14
293.154
293.151
293.152
293.157
293.145
293.663
296.172
293.661
293.143
293.155
293.151
293.153
293.159
293.156
293.909
296.942
293.907
293.154
293.157
293.152
293.155
293.163
293.187
294.308
298.05
294.305
293.185
293.16
293.153
293.158
293.171
293.257
294.916
299.55
294.913
293.254
293.167
293.155
293.163
293.188
293.394
295.805
301.515
295.802
293.39
293.184
293.16
293.174
293.224
293.64
297.066
304.034
297.063
293.636
293.22
293.17
293.198
293.3
294.057
298.811
307.217
298.808
294.052
293.295
293.193
293.249
293.447
294.728
301.174
311.186
301.171
294.724
293.441
293.244
293.35
293.717
295.769
304.311
316.078
304.307
295.764
293.711
293.345
293.567
294.201
297.325
308.383
322.021
308.379
297.319
294.194
293.561
293.886
294.992
299.566
313.532
329.1
313.527
299.559
294.985
293.879
295.02
296.367
302.623
319.786
337.243
319.78
302.616
296.36
295.012
294.428
298.357
306.722
326.957
346.167
326.951
306.715
298.349
294.42
306.506
299.77
310.579
334.454
354.724
334.448
310.571
299.761
306.498
369.828
327.038
316.122
340.794
361.195
340.787
316.113
327.03
369.824
396
355.521
325.722
346.868
367.949
346.861
325.714
355.516
395.999
403.127
369.62
335.144
354.12
376.152
354.112
335.136
369.616
403.127
404.279
375.775
343.483
362.731
385.539
362.723
343.474
375.772
404.279
403.658
378.815
351.391
372.523
395.884
372.515
351.382
378.811
403.658
402.594
380.961
359.481
383.32
407.05
383.312
359.472
380.957
402.593
401.54
383.116
368.077
395.016
418.96
395.007
368.068
383.111
401.539
400.663
385.619
377.366
407.539
431.564
407.53
377.356
385.615
400.662
400.044
388.626
387.451
420.895
444.871
420.886
387.441
388.621
400.043
399.727
392.219
398.459
435.186
458.975
435.177
398.449
392.213
399.725
399.782
396.62
410.714
450.706
474.158
450.697
410.704
396.615
399.78
400.106
401.725
424.796
468.228
491.126
468.219
424.786
401.72
400.104
401.28
410.444
443.569
489.694
511.71
489.685
443.558
410.437
401.278
401.509
415.809
467.992
520.571
540.279
520.563
467.982
415.802
401.506
406.093
468.337
570.939
591.095
603.421
591.091
570.932
468.33
406.09
410.28
489.754
489.747
410.277
404.77
462.695
480.807
495.559
513.011
495.553
480.801
462.69
404.767
420.098
431
458.754
486.727
502.465
486.72
458.748
430.995
420.094
455.126
483.338
497.793
483.33
455.119
456.757
484.022
497.445
484.014
456.749
459.831
486.508
499.093
486.5
459.823
463.285
489.676
501.51
489.669
463.277
466.847
493.085
504.209
493.077
466.839
470.447
496.571
507.007
496.564
470.439
474.066
500.075
509.838
500.067
474.058
477.709
503.582
512.683
503.575
477.701
481.332
507.052
515.507
507.045
481.324
485.109
510.631
518.43
510.624
485.1
488.263
513.637
520.888
513.63
488.255
494.17
519.119
525.4
519.111
494.162
293.154
293.179
293.063
295.475
304.564
295.473
293.062
293.177
293.154
293.156
293.18
293.079
295.694
305.093
295.692
293.077
293.179
293.155
293.159
293.184
293.121
296.17
306.17
296.168
293.119
293.182
293.157
293.164
293.191
293.208
296.94
307.796
296.938
293.206
293.189
293.162
293.172
293.208
293.372
298.047
309.967
298.045
293.369
293.205
293.17
293.187
293.243
293.65
299.547
312.7
299.545
293.647
293.24
293.185
293.215
293.312
294.094
301.512
316.038
301.51
294.091
293.308
293.212
293.264
293.44
294.769
304.032
320.047
304.029
294.765
293.436
293.261
293.354
293.665
295.759
307.214
324.818
307.21
295.755
293.661
293.35
293.513
294.045
297.174
311.183
330.455
311.179
297.17
294.04
293.509
293.791
294.659
299.144
316.075
337.071
316.071
299.139
294.654
293.786
294.276
295.63
301.823
322.018
344.767
322.014
301.818
295.624
294.271
294.944
297.021
305.347
329.097
353.601
329.092
305.341
297.015
294.938
297.011
299.425
309.756
337.24
363.512
337.235
309.749
299.419
297.005
294.022
300.611
315.1
346.164
374.213
346.158
315.093
300.604
294.015
344.431
310.353
317.576
354.721
385.168
354.714
317.569
310.345
344.426
399.816
362.883
329.199
361.191
395.174
361.184
329.192
362.879
399.816
402.376
388.817
346.319
367.946
404.222
367.938
346.313
388.816
402.376
403.117
395.972
357.712
376.148
413.454
376.14
357.706
395.972
403.117
403.23
397.297
365.207
385.535
423.362
385.528
365.202
397.297
403.23
403.095
397.104
371.352
395.88
434.007
395.872
371.346
397.103
403.095
402.84
396.73
377.452
407.046
445.326
407.038
377.446
396.728
402.84
402.518
396.619
384.045
418.957
457.269
418.949
384.039
396.617
402.518
402.169
396.913
391.372
431.561
469.757
431.553
391.365
396.911
402.168
401.824
397.69
399.563
444.868
482.776
444.86
399.556
397.688
401.824
401.507
399.014
408.773
458.973
496.357
458.965
408.766
399.012
401.507
401.285
401.129
419.402
474.156
510.631
474.148
419.394
401.126
401.284
401.032
403.992
432.263
491.124
525.926
491.116
432.256
403.989
401.032
401.435
410.869
450.641
511.709
543.361
511.702
450.633
410.865
401.434
400.356
415.216
477.343
540.279
564.765
540.272
477.334
415.211
400.355
404.464
472.763
583.818
603.421
616.417
603.417
583.813
472.758
404.463
407.746
495.62
495.615
407.745
400.276
465.691
494.735
513.014
530.244
513.01
494.731
465.688
400.275
400.231
410.197
454.144
502.468
530.539
502.463
454.141
410.195
400.231
444.615
497.796
531.723
497.791
444.612
443.561
497.448
533.636
497.444
443.557
444.97
499.097
536.004
499.093
444.967
447.063
501.513
538.564
501.511
447.06
449.378
504.213
541.19
504.21
449.374
451.783
507.011
543.826
507.009
451.78
454.244
509.841
546.449
509.839
454.241
456.758
512.687
549.055
512.685
456.754
459.287
515.511
551.621
515.509
459.284
461.974
518.434
554.241
518.432
461.971
464.199
520.891
556.467
520.89
464.195
468.578
525.403
560.393
525.402
468.574
293.15
293.153
293.138
293.466
295.472
293.465
293.138
293.153
293.15
293.151
293.154
293.139
293.522
295.691
293.522
293.139
293.153
293.15
293.151
293.155
293.142
293.658
296.166
293.657
293.141
293.155
293.151
293.152
293.157
293.153
293.904
296.937
293.903
293.152
293.156
293.151
293.154
293.161
293.184
294.303
298.044
294.302
293.183
293.159
293.152
293.156
293.168
293.253
294.91
299.543
294.909
293.252
293.166
293.154
293.161
293.184
293.39
295.799
301.508
295.798
293.388
293.182
293.159
293.171
293.221
293.636
297.06
304.027
297.058
293.634
293.218
293.169
293.195
293.296
294.052
298.805
307.209
298.803
294.05
293.293
293.192
293.245
293.442
294.723
301.168
311.178
301.166
294.721
293.439
293.242
293.347
293.712
295.764
304.304
316.069
304.301
295.761
293.709
293.343
293.563
294.196
297.319
308.375
322.012
308.373
297.316
294.192
293.559
293.882
294.987
299.559
313.523
329.09
313.52
299.556
294.982
293.878
295.015
296.362
302.616
319.777
337.233
319.773
302.612
296.357
295.011
294.424
298.352
306.715
326.947
346.157
326.944
306.711
298.347
294.419
306.502
299.764
310.571
334.444
354.713
334.44
310.566
299.758
306.497
369.825
327.033
316.114
340.783
361.183
340.779
316.109
327.029
369.824
395.999
355.518
325.715
346.857
367.936
346.852
325.71
355.514
395.999
403.126
369.618
335.138
354.108
376.139
354.103
335.132
369.615
403.126
404.279
375.773
343.476
362.719
385.526
362.714
343.47
375.771
404.279
403.658
378.813
351.384
372.511
395.871
372.506
351.379
378.81
403.658
402.593
380.959
359.474
383.308
407.037
383.302
359.468
380.956
402.593
401.539
383.113
368.07
395.004
418.947
394.998
368.064
383.11
401.539
400.662
385.617
377.358
407.527
431.552
407.521
377.352
385.614
400.662
400.044
388.624
387.443
420.884
444.859
420.878
387.437
388.621
400.043
399.726
392.216
398.451
435.175
458.964
435.169
398.445
392.213
399.725
399.781
396.617
410.707
450.695
474.147
450.689
410.7
396.614
399.78
400.106
401.723
424.789
468.217
491.116
468.211
424.782
401.719
400.105
401.279
410.441
443.562
489.685
511.702
489.679
443.555
410.437
401.278
401.508
415.805
467.985
520.563
540.272
520.558
467.978
415.801
401.507
406.092
468.333
570.935
591.092
603.418
591.089
570.93
468.329
406.091
410.279
489.75
489.745
410.277
404.769
462.693
480.804
495.556
513.012
495.552
480.8
462.689
404.767
420.096
430.997
458.75
486.723
502.466
486.72
458.747
430.994
420.094
455.122
483.334
497.794
483.331
455.118
456.752
484.018
497.447
484.015
456.748
459.826
486.504
499.096
486.501
459.822
463.28
489.672
501.513
489.67
463.276
466.841
493.081
504.213
493.079
466.837
470.441
496.567
507.011
496.565
470.437
474.061
500.071
509.842
500.069
474.057
477.703
503.578
512.688
503.576
477.699
481.327
507.049
515.512
507.047
481.323
485.103
510.628
518.435
510.626
485.099
488.257
513.634
520.892
513.632
488.253
494.165
519.115
525.405
519.113
494.161
293.15
293.151
293.157
293.138
293.061
293.138
293.156
293.15
293.15
293.15
293.151
293.157
293.139
293.077
293.138
293.157
293.151
293.15
293.151
293.152
293.158
293.142
293.118
293.141
293.158
293.151
293.151
293.152
293.152
293.16
293.152
293.205
293.152
293.159
293.152
293.151
293.153
293.154
293.163
293.183
293.369
293.183
293.162
293.153
293.152
293.154
293.156
293.17
293.252
293.646
293.251
293.169
293.155
293.153
293.155
293.159
293.187
293.388
294.09
293.388
293.186
293.158
293.154
293.158
293.167
293.226
293.634
294.764
293.633
293.224
293.165
293.157
293.164
293.183
293.307
294.05
295.754
294.049
293.305
293.181
293.162
293.177
293.218
293.463
294.722
297.169
294.72
293.462
293.215
293.175
293.205
293.291
293.752
295.762
299.138
295.76
293.75
293.289
293.203
293.272
293.441
294.257
297.317
301.817
297.315
294.255
293.438
293.269
293.404
293.734
295.105
299.557
305.34
299.555
295.103
293.731
293.402
293.686
294.257
296.449
302.613
309.748
302.612
296.447
294.254
293.683
294.581
295.397
298.511
306.712
315.092
306.71
298.508
295.393
294.578
293.102
296.212
301.304
310.568
317.568
310.566
301.301
296.208
293.098
311.113
300.721
304.641
316.111
329.191
316.109
304.637
300.717
311.109
335.503
310.519
308.997
325.712
346.312
325.71
308.994
310.515
335.5
349.483
319.495
314.318
335.134
357.706
335.132
314.314
319.491
349.48
356.311
326.484
320.392
343.472
365.201
343.47
320.388
326.479
356.308
359.927
332.378
327.189
351.381
371.345
351.378
327.184
332.374
359.924
362.473
338.049
334.754
359.471
377.446
359.468
334.75
338.044
362.47
364.924
344.005
343.149
368.066
384.039
368.064
343.145
344.001
364.922
367.703
350.511
352.424
377.355
391.365
377.352
352.42
350.506
367.701
371.008
357.707
362.639
387.44
399.556
387.437
362.634
357.702
371.005
374.93
365.667
373.867
398.448
408.766
398.445
373.862
365.663
374.927
379.53
374.579
386.383
410.704
419.395
410.7
386.378
374.574
379.527
384.703
384.148
400.215
424.786
432.256
424.783
400.21
384.143
384.7
390.668
396.869
418.786
443.559
450.634
443.555
418.781
396.864
390.665
396.216
404.098
434.17
467.983
477.336
467.979
434.165
404.093
396.213
403.365
448.224
543.964
570.933
583.814
570.93
543.96
448.219
403.361
409.727
464.699
464.695
409.724
411.106
444.06
455.865
480.803
494.733
480.801
455.861
444.055
411.102
442.551
447.488
453.483
458.75
454.143
458.748
453.479
447.484
442.547
456.176
455.122
444.615
455.119
456.171
460.543
456.752
443.56
456.749
460.539
465.286
459.826
444.969
459.823
465.281
470.148
463.281
447.062
463.278
470.143
475.042
466.842
449.377
466.839
475.037
479.949
470.442
451.782
470.439
479.944
484.859
474.062
454.243
474.058
484.854
489.776
477.704
456.757
477.701
489.771
494.65
481.328
459.286
481.324
494.645
499.694
485.104
461.973
485.101
499.69
503.92
488.258
464.198
488.255
503.915
511.675
494.166
468.577
494.163
511.67
293.15
293.151
293.151
293.153
293.177
293.153
293.15
293.151
293.15
293.15
293.151
293.151
293.154
293.178
293.153
293.151
293.151
293.15
293.151
293.151
293.151
293.155
293.182
293.155
293.151
293.151
293.15
293.151
293.152
293.152
293.156
293.189
293.156
293.152
293.152
293.151
293.152
293.153
293.153
293.159
293.205
293.159
293.153
293.152
293.151
293.153
293.154
293.155
293.166
293.239
293.166
293.155
293.153
293.152
293.154
293.155
293.159
293.183
293.308
293.182
293.158
293.154
293.153
293.155
293.157
293.166
293.219
293.435
293.218
293.165
293.156
293.154
293.157
293.161
293.182
293.293
293.661
293.293
293.181
293.16
293.156
293.162
293.171
293.217
293.44
294.04
293.439
293.215
293.169
293.16
293.173
293.194
293.29
293.709
294.653
293.709
293.289
293.192
293.171
293.199
293.244
293.44
294.193
295.624
294.192
293.438
293.242
293.197
293.266
293.358
293.733
294.983
297.014
294.982
293.731
293.356
293.264
293.377
293.581
294.256
296.358
299.418
296.357
294.254
293.578
293.375
293.789
294.056
295.395
298.348
300.603
298.347
295.393
294.054
293.786
293.87
294.851
296.21
299.759
310.345
299.758
296.208
294.848
293.867
294.308
295.653
300.719
327.03
362.879
327.029
300.717
295.65
294.305
298.012
297.388
310.517
355.515
388.816
355.514
310.515
297.385
298.008
302.712
300.321
319.493
369.616
395.972
369.615
319.491
300.318
302.709
307.125
304.114
326.482
375.771
397.297
375.771
326.48
304.11
307.121
311.299
308.578
332.376
378.811
397.103
378.81
332.374
308.575
311.296
315.612
313.712
338.047
380.957
396.729
380.956
338.044
313.709
315.608
320.38
319.591
344.003
383.112
396.617
383.111
344.001
319.587
320.376
325.821
326.303
350.509
385.615
396.912
385.614
350.506
326.299
325.817
332.077
333.934
357.705
388.622
397.689
388.621
357.702
333.93
332.073
339.242
342.554
365.666
392.214
399.013
392.213
365.663
342.55
339.238
347.37
352.271
374.578
396.616
401.127
396.614
374.575
352.267
347.366
356.44
363.006
384.146
401.721
403.991
401.72
384.143
363.002
356.436
366.368
375.486
396.868
410.439
410.867
410.438
396.865
375.482
366.364
376.863
387.375
404.097
415.804
415.213
415.802
404.094
387.371
376.859
387.294
404.71
448.223
468.332
472.76
468.33
448.22
404.706
387.29
397.27
414.722
464.698
489.749
495.617
489.747
464.695
414.718
397.266
406.733
413.748
444.059
462.692
465.689
462.691
444.056
413.744
406.728
446.908
446.127
447.488
430.997
410.197
430.996
447.485
446.123
446.905
293.15
293.15
293.15
293.15
293.154
293.15
293.15
293.15
293.15
293.15
293.15
293.15
293.151
293.155
293.15
293.15
293.15
293.15
293.15
293.151
293.151
293.151
293.157
293.151
293.151
293.15
293.15
293.151
293.151
293.151
293.152
293.162
293.151
293.151
293.151
293.15
293.151
293.152
293.152
293.153
293.17
293.152
293.152
293.151
293.151
293.152
293.153
293.153
293.155
293.184
293.154
293.153
293.152
293.151
293.153
293.153
293.155
293.159
293.211
293.159
293.154
293.153
293.152
293.154
293.155
293.157
293.169
293.26
293.169
293.157
293.154
293.152
293.155
293.157
293.163
293.193
293.35
293.192
293.162
293.156
293.153
293.158
293.162
293.176
293.243
293.509
293.242
293.175
293.16
293.156
293.165
293.173
293.204
293.344
293.786
293.343
293.203
293.171
293.163
293.183
293.199
293.27
293.56
294.27
293.559
293.269
293.197
293.18
293.225
293.265
293.403
293.879
294.938
293.878
293.402
293.264
293.222
293.316
293.376
293.684
295.012
297.005
295.011
293.683
293.375
293.313
293.507
293.788
294.579
294.42
294.015
294.419
294.578
293.786
293.504
293.929
293.87
293.1
306.497
344.426
306.497
293.099
293.868
293.926
294.151
294.307
311.11
369.824
399.816
369.824
311.109
294.305
294.148
294.413
298.011
335.501
395.999
402.376
395.999
335.5
298.008
294.41
295.312
302.711
349.481
403.127
403.117
403.126
349.48
302.709
295.309
296.978
307.123
356.309
404.279
403.23
404.279
356.308
307.121
296.975
299.375
311.298
359.926
403.658
403.095
403.658
359.925
311.296
299.371
302.503
315.611
362.472
402.593
402.84
402.593
362.47
315.608
302.499
306.418
320.379
364.923
401.539
402.518
401.539
364.922
320.376
306.414
311.204
325.82
367.702
400.662
402.168
400.662
367.701
325.817
311.2
316.95
332.076
371.007
400.044
401.824
400.043
371.005
332.073
316.946
323.729
339.241
374.929
399.726
401.507
399.726
374.927
339.238
323.726
331.583
347.369
379.529
399.781
401.285
399.781
379.527
347.366
331.579
340.501
356.439
384.702
400.106
401.033
400.105
384.7
356.436
340.498
350.401
366.367
390.667
401.279
401.435
401.279
390.665
366.364
350.398
361.169
376.862
396.215
401.508
400.357
401.508
396.213
376.859
361.166
372.445
387.292
403.364
406.092
404.464
406.092
403.362
387.29
372.441
385.025
397.269
409.726
410.279
407.746
410.279
409.725
397.266
385.021
399.435
406.731
411.105
404.769
400.277
404.769
411.103
406.728
399.431
445.817
446.907
442.55
420.097
400.233
420.095
442.547
446.905
445.816
)
;

boundaryField
{
    injectionXMinus
    {
        type            uniformFixedValue;
        uniformValue    uniform 400;
        value           uniform 400;
    }
    injectionXPlus
    {
        type            uniformFixedValue;
        uniformValue    uniform 400;
        value           uniform 400;
    }
    injectionYMinus
    {
        type            uniformFixedValue;
        uniformValue    uniform 400;
        value           uniform 400;
    }
    injectionYPlus
    {
        type            uniformFixedValue;
        uniformValue    uniform 400;
        value           uniform 400;
    }
    inletXMinus
    {
        type            uniformFixedValue;
        uniformValue    uniform 293.15;
        value           uniform 293.15;
    }
    inletXPlus
    {
        type            uniformFixedValue;
        uniformValue    uniform 293.15;
        value           uniform 293.15;
    }
    inletYMinus
    {
        type            uniformFixedValue;
        uniformValue    uniform 293.15;
        value           uniform 293.15;
    }
    inletYPlus
    {
        type            uniformFixedValue;
        uniformValue    uniform 293.15;
        value           uniform 293.15;
    }
    outlet
    {
        type            zeroGradient;
    }
    valve
    {
        type            zeroGradient;
    }
    walls
    {
        type            zeroGradient;
    }
}


// ************************************************************************* //
