/*--------------------------------*- C++ -*----------------------------------*\
  =========                 |
  \\      /  F ield         | OpenFOAM: The Open Source CFD Toolbox
   \\    /   O peration     | Website:  https://openfoam.org
    \\  /    A nd           | Version:  dev
     \\/     M anipulation  |
\*---------------------------------------------------------------------------*/
FoamFile
{
    version     2.0;
    format      ascii;
    class       volScalarField;
    location    "0.000105";
    object      p;
}
// * * * * * * * * * * * * * * * * * * * * * * * * * * * * * * * * * * * * * //

dimensions      [1 -1 -2 0 0 0 0];

internalField   nonuniform List<scalar> 
60
(
    1e+05
    1e+05
    1e+05
    1e+05
    1e+05
    1e+05
    1e+05
    1e+05
    1e+05
    1e+05
    1e+05
    1e+05
    1e+05
    1e+05
    1e+05
    1e+05
    1e+05
    1e+05
    1e+05
    1e+05
    1e+05
    1e+05
    1e+05
    1e+05
    1e+05
    1e+05
    1e+05
    1e+05
    1e+05
    1e+05
    1.5e+05
    1.5e+05
    1.5e+05
    1.5e+05
    1.5e+05
    1.5e+05
    1.5e+05
    1.5e+05
    1.5e+05
    1.5e+05
    1.5e+05
    1.5e+05
    1.5e+05
    1.5e+05
    1.5e+05
    1.5e+05
    1.5e+05
    1.5e+05
    1.5e+05
    1.5e+05
    1.5e+05
    1.5e+05
    1.5e+05
    1.5e+05
    1.5e+05
    1.5e+05
    1.5e+05
    1.5e+05
    1.5e+05
    1.5e+05
);

boundaryField
{
    walls
    {
        type    zeroGradient;
    }
}


// ************************************************************************* //
