/*--------------------------------*- C++ -*----------------------------------*\
  =========                 |
  \\      /  F ield         | OpenFOAM: dualFuelEngline addition to OpenFOAM v7
   \\    /   O peration     | Website:  https://github.com/StasF1/dualFuelEngine
    \\  /    A nd           | Version:  0.4-alpha
     \\/     M anipulation  |
\*---------------------------------------------------------------------------*/
FoamFile
{
    version     2.0;
    format      ascii;
    class       volScalarField;
    object      T;
}
// * * * * * * * * * * * * * * * * * * * * * * * * * * * * * * * * * * * * * //

dimensions      [0 0 0 1 0 0 0]; // K

internalField   nonuniform List<scalar>  
60
(
    293.15
    293.15
    293.15
    293.15
    293.15
    293.15
    293.15
    293.15
    293.15
    293.15
    293.15
    293.15
    293.15
    293.15
    293.15
    293.15
    293.15
    293.15
    293.15
    293.15
    293.15
    293.15
    293.15
    293.15
    293.15
    293.15
    293.15
    293.15
    293.15
    293.15
    350
    350
    350
    350
    350
    350
    350
    350
    350
    350
    350
    350
    350
    350
    350
    350
    350
    350
    350
    350
    350
    350
    350
    350
    350
    350
    350
    350
    350
    350
);

boundaryField
{
    walls
    {
        type    zeroGradient;
    }
}

// ************************************************************************* //