/*--------------------------------*- C++ -*----------------------------------*\
  =========                 |
  \\      /  F ield         | OpenFOAM: The Open Source CFD Toolbox
   \\    /   O peration     | Website:  https://openfoam.org
    \\  /    A nd           | Version:  6
     \\/     M anipulation  |
\*---------------------------------------------------------------------------*/
FoamFile
{
    version     2.0;
    format      ascii;
    class       volVectorField;
    location    "0";
    object      U;
}
// * * * * * * * * * * * * * * * * * * * * * * * * * * * * * * * * * * * * * //

dimensions      [0 1 -1 0 0 0 0];

internalField   nonuniform List<vector> 
3029
(
(0.851486 0.851486 0.297028)
(0.823239 0.639246 0.240486)
(0.76399 0.622677 0.188851)
(0.104276 0.429331 0.136227)
(0.0692099 -1.2948e-06 0.119617)
(0.104276 -0.429333 0.136227)
(0.76399 -0.622679 0.18885)
(0.823239 -0.639247 0.240486)
(0.851486 -0.851486 0.297027)
(0.794945 0.794945 1.00416)
(0.77221 0.531069 0.767583)
(0.724006 0.518417 0.607523)
(0.0865007 0.360098 0.390441)
(0.0577768 -1.3602e-06 0.337066)
(0.0865007 -0.3601 0.39044)
(0.724006 -0.518419 0.607523)
(0.77221 -0.53107 0.767582)
(0.794945 -0.794945 1.00416)
(0.114905 0.114905 1.18446)
(0.103149 0.242605 0.938246)
(0.0818249 0.245535 0.765385)
(0.0477289 0.158873 0.537493)
(0.036935 -1.40833e-06 0.48004)
(0.0477288 -0.158876 0.537493)
(0.0818249 -0.245537 0.765385)
(0.103149 -0.242606 0.938246)
(0.114905 -0.114905 1.18446)
(0.0487289 0.0487291 0.857192)
(0.0435806 0.111992 0.764184)
(0.0350658 0.117664 0.667218)
(0.0250663 0.0747525 0.575542)
(0.0213484 -1.44961e-06 0.544536)
(0.0250663 -0.0747552 0.575542)
(0.0350658 -0.117667 0.667218)
(0.0435805 -0.111993 0.764183)
(0.0487287 -0.0487294 0.857192)
(0.0218962 0.0218964 0.71594)
(0.0197917 0.0526311 0.677436)
(0.0164703 0.0568928 0.629117)
(0.0131403 0.0361911 0.587508)
(0.0118354 -1.4793e-06 0.57212)
(0.0131403 -0.0361939 0.587508)
(0.0164703 -0.0568951 0.629116)
(0.0197917 -0.0526323 0.677436)
(0.021896 -0.0218967 0.71594)
(0.0102253 0.0102255 0.651694)
(0.00938997 0.0251687 0.634695)
(0.00809973 0.0277364 0.61127)
(0.00690058 0.0177556 0.59142)
(0.0064253 -1.49592e-06 0.58385)
(0.00690059 -0.0177585 0.59142)
(0.00809973 -0.0277387 0.61127)
(0.00938995 -0.0251699 0.634695)
(0.0102251 -0.0102258 0.651694)
(0.00489676 0.00489698 0.621448)
(0.00457033 0.0122067 0.613601)
(0.00407059 0.0136182 0.602248)
(0.00362177 0.00877114 0.592572)
(0.00344395 -1.50068e-06 0.588831)
(0.00362178 -0.00877396 0.592572)
(0.0040706 -0.0136205 0.602248)
(0.00457032 -0.0122079 0.613601)
(0.00489663 -0.00489729 0.621448)
(0.00237827 0.00237847 0.606896)
(0.00225483 0.00596848 0.603148)
(0.00206652 0.00670753 0.597582)
(0.00189989 0.00433898 0.59279)
(0.00183403 -1.49351e-06 0.590922)
(0.00189989 -0.00434178 0.59279)
(0.00206652 -0.00670979 0.597582)
(0.00225482 -0.00596975 0.603149)
(0.00237814 -0.00237878 0.606896)
(0.00114952 0.0011497 0.599838)
(0.00111226 0.00289255 0.597974)
(0.00105573 0.00325963 0.595155)
(0.00100623 0.0021114 0.5927)
(0.00098681 -1.47715e-06 0.591734)
(0.00100624 -0.00211418 0.5927)
(0.00105574 -0.00326188 0.595155)
(0.00111226 -0.00289382 0.597974)
(0.00114941 -0.00115002 0.599838)
(0.000513971 0.000514135 0.596509)
(0.000527287 0.00128574 0.595481)
(0.000548461 0.00143335 0.593885)
(0.000568296 0.000917566 0.592451)
(0.000576737 -1.44978e-06 0.591872)
(0.000568302 -0.000920287 0.592451)
(0.000548468 -0.00143554 0.593885)
(0.000527279 -0.00128698 0.595481)
(0.000513865 -0.000514452 0.596509)
(0.000121219 0.000121361 0.595237)
(0.000196291 0.000268066 0.594472)
(0.000313876 0.000229688 0.593194)
(0.000422794 9.88577e-05 0.591931)
(0.00046902 -1.41502e-06 0.591371)
(0.000422802 -0.000101515 0.591931)
(0.00031389 -0.000231836 0.593194)
(0.000196295 -0.000269295 0.594472)
(0.000121135 -0.000121683 0.595237)
(-0.000251113 -0.000250996 0.595495)
(-4.88795e-05 -0.000757535 0.594552)
(0.000271319 -0.00110777 0.592765)
(0.000578823 -0.000905386 0.590697)
(0.0007181 -1.3693e-06 0.589608)
(0.000578829 0.000902818 0.590697)
(0.000271327 0.0011057 0.592765)
(-4.88839e-05 0.000756354 0.594552)
(-0.000251197 0.000250683 0.595495)
(-0.000821586 -0.000821493 0.597639)
(-0.000323434 -0.00246219 0.595997)
(0.000482499 -0.00362533 0.592448)
(0.00131304 -0.00305788 0.587595)
(0.00174386 -1.31704e-06 0.584392)
(0.00131305 0.0030554 0.587595)
(0.000482514 0.00362334 0.592448)
(-0.000323424 0.00246103 0.595997)
(-0.000821645 0.000821176 0.597639)
(-0.00189292 -0.00189285 0.603066)
(-0.00071787 -0.00594874 0.600019)
(0.00125385 -0.00950975 0.592451)
(0.00355172 -0.00896067 0.57987)
(0.00507475 -1.25367e-06 0.568415)
(0.00355173 0.00895832 0.57987)
(0.00125386 0.00950786 0.592452)
(-0.00071787 0.00594765 0.600019)
(-0.00189298 0.00189255 0.603067)
(-0.00386947 -0.00386943 0.61459)
(-0.0012606 -0.0130772 0.609497)
(0.00338327 -0.0237737 0.594569)
(0.0099868 -0.0270945 0.562346)
(0.0164276 -1.18466e-06 0.514843)
(0.00998681 0.0270923 0.562346)
(0.00338329 0.0237719 0.594569)
(-0.00126058 0.0130761 0.609497)
(-0.0038695 0.00386912 0.61459)
(-0.00698628 -0.00698626 0.6363)
(-0.00179567 -0.0259699 0.629887)
(0.00831288 -0.0566604 0.606923)
(0.0276019 -0.0886868 0.536052)
(0.0600515 -1.10417e-06 0.311288)
(0.0276019 0.0886847 0.536052)
(0.00831289 0.0566587 0.606923)
(-0.00179567 0.0259689 0.629887)
(-0.00698631 0.00698598 0.636301)
(-0.0102829 -0.0102829 0.670838)
(-0.00196506 -0.042455 0.667533)
(0.0162342 -0.117609 0.654332)
(0.0670781 -0.32273 0.606561)
(1.25436 -1.01834e-06 0.420274)
(0.0670781 0.322728 0.606562)
(0.0162342 0.117607 0.654332)
(-0.00196505 0.042454 0.667534)
(-0.0102829 0.0102826 0.670838)
(-0.010291 -0.0102911 0.711985)
(-0.00197335 -0.0424757 0.715253)
(0.0162258 -0.117632 0.728398)
(0.0670695 -0.322745 0.77612)
(1.25435 -9.20781e-07 0.962388)
(0.0670695 0.322743 0.77612)
(0.0162258 0.117631 0.728399)
(-0.00197335 0.0424749 0.715254)
(-0.0102911 0.0102908 0.711986)
(-0.00701458 -0.00701465 0.746596)
(-0.00182439 -0.0260416 0.752956)
(0.00828352 -0.0567418 0.775839)
(0.027572 -0.0887398 0.846638)
(0.0600214 -8.18665e-07 1.07138)
(0.027572 0.0887383 0.846639)
(0.00828354 0.0567406 0.77584)
(-0.00182436 0.0260409 0.752957)
(-0.00701457 0.00701441 0.746597)
(-0.00393073 -0.00393083 0.768486)
(-0.00132297 -0.0132324 0.773486)
(0.00331914 -0.0239499 0.788271)
(0.00992113 -0.0272093 0.820368)
(0.0163613 -7.05109e-07 0.867822)
(0.00992113 0.027208 0.820368)
(0.00331915 0.0239488 0.788271)
(-0.00132295 0.0132318 0.773487)
(-0.00393071 0.00393062 0.768487)
(-0.00201469 -0.00201482 0.780377)
(-0.000842548 -0.00625721 0.78325)
(0.00112467 -0.00986004 0.790549)
(0.00341857 -0.00918889 0.802895)
(0.00494003 -5.88051e-07 0.814257)
(0.00341858 0.0091878 0.802895)
(0.00112468 0.00985915 0.790549)
(-0.000842519 0.00625664 0.78325)
(-0.00201465 0.00201462 0.780378)
(-0.001058 -0.00105816 0.786523)
(-0.000567314 -0.00306084 0.787832)
(0.00022709 -0.00430519 0.790872)
(0.00104752 -0.00350092 0.795278)
(0.00147436 -4.60808e-07 0.798305)
(0.00104753 0.00350007 0.795278)
(0.000227101 0.00430451 0.790873)
(-0.000567297 0.0030604 0.787832)
(-0.00105796 0.001058 0.786523)
(-0.00070553 -0.00070572 0.79005)
(-0.000522421 -0.00190778 0.790363)
(-0.0002316 -0.00241377 0.791187)
(5.02057e-05 -0.00175634 0.79241)
(0.000179386 -3.32362e-07 0.793166)
(5.02145e-05 0.00175572 0.79241)
(-0.00023158 0.00241328 0.791187)
(-0.000522386 0.00190742 0.790363)
(-0.000705457 0.000705571 0.790051)
(-0.00074537 -0.000745594 0.792953)
(-0.000719108 -0.00192454 0.792535)
(-0.000676453 -0.00225836 0.792005)
(-0.000632791 -0.00152125 0.791688)
(-0.000612105 -1.95872e-07 0.791627)
(-0.000632785 0.00152089 0.791688)
(-0.000676441 0.00225809 0.792006)
(-0.000719085 0.00192433 0.792535)
(-0.000745299 0.000745485 0.792953)
(-0.00112347 -0.00112372 0.796691)
(-0.00123445 -0.00285514 0.79553)
(-0.00140447 -0.0032602 0.793785)
(-0.00154995 -0.00213441 0.792311)
(-0.00160577 -5.99645e-08 0.791751)
(-0.00154994 0.0021343 0.792311)
(-0.00140445 0.00326013 0.793785)
(-0.00123441 0.00285502 0.795531)
(-0.00112337 0.00112363 0.796692)
(-0.00190629 -0.00190658 0.802752)
(-0.00225854 -0.00483082 0.80065)
(-0.00280341 -0.00547742 0.79742)
(-0.00326961 -0.00355476 0.794657)
(-0.00344913 8.29668e-08 0.793593)
(-0.00326961 0.00355493 0.794657)
(-0.00280339 0.00547758 0.797421)
(-0.00225852 0.00483084 0.80065)
(-0.00190619 0.00190652 0.802753)
(-0.00322541 -0.00322572 0.813016)
(-0.0041384 -0.0081867 0.809801)
(-0.0055741 -0.00925288 0.804759)
(-0.00677955 -0.00596155 0.800534)
(-0.00723643 2.24928e-07 0.798937)
(-0.00677954 0.00596199 0.800534)
(-0.00557408 0.00925323 0.804759)
(-0.00413836 0.00818681 0.809802)
(-0.00322528 0.00322567 0.813017)
(-0.00512153 -0.00512186 0.829712)
(-0.00737605 -0.0130883 0.825897)
(-0.0110522 -0.0147447 0.81953)
(-0.0140269 -0.00937645 0.81454)
(-0.015123 3.72495e-07 0.812762)
(-0.0140269 0.00937716 0.81454)
(-0.0110522 0.0147453 0.81953)
(-0.00737602 0.0130886 0.825898)
(-0.0051214 0.00512184 0.829713)
(-0.00703987 -0.00704021 0.854036)
(-0.012302 -0.0183689 0.852711)
(-0.0215597 -0.0206105 0.848908)
(-0.0285545 -0.012729 0.847108)
(-0.0310165 5.14113e-07 0.846812)
(-0.0285545 0.01273 0.847109)
(-0.0215597 0.0206113 0.848909)
(-0.012302 0.0183692 0.852711)
(-0.00703969 0.00704018 0.854037)
(-0.00644712 -0.00644748 0.881012)
(-0.0172506 -0.0182162 0.891876)
(-0.0394381 -0.020347 0.904671)
(-0.0542071 -0.0114729 0.918354)
(-0.0590501 6.43984e-07 0.924196)
(-0.0542071 0.0114741 0.918354)
(-0.0394381 0.020348 0.904672)
(-0.0172505 0.0182166 0.891876)
(-0.00644691 0.00644744 0.881013)
(0.00382365 0.00382329 0.886261)
(-0.0113603 0.00529 0.928168)
(-0.0547643 0.00586796 0.992751)
(-0.0774141 0.00679581 1.0463)
(-0.0840908 7.51541e-07 1.06634)
(-0.0774141 -0.00679441 1.0463)
(-0.0547642 -0.0058669 0.992752)
(-0.0113601 -0.00528967 0.928168)
(0.00382392 -0.00382337 0.886262)
(0.0354591 0.0354588 0.807698)
(0.0419667 0.0882737 0.882565)
(0.0452312 0.0977867 1.0072)
(0.0523488 0.0621138 1.10121)
(0.0549452 8.10219e-07 1.13456)
(0.0523488 -0.0621122 1.10121)
(0.0452312 -0.0977855 1.0072)
(0.0419669 -0.0882733 0.882565)
(0.0354594 -0.0354589 0.807698)
(0.0786907 0.0786903 0.579402)
(0.126391 0.204788 0.649449)
(0.231836 0.224509 0.765663)
(0.291331 0.134157 0.848025)
(0.309065 8.0435e-07 0.876326)
(0.29133 -0.134156 0.848025)
(0.231836 -0.224508 0.765663)
(0.126391 -0.204788 0.649449)
(0.0786909 -0.0786904 0.579402)
(0.105506 0.105506 0.211011)
(0.174306 0.274535 0.237827)
(0.322454 0.296363 0.280758)
(0.391573 0.172777 0.309681)
(0.410264 7.52752e-07 0.319378)
(0.391573 -0.172776 0.309681)
(0.322454 -0.296362 0.280757)
(0.174306 -0.274534 0.237826)
(0.105507 -0.105506 0.211011)
(0.639245 0.82324 0.240486)
(0.551749 0.55175 0.189457)
(0.43242 0.403714 0.148866)
(0.205957 0.23455 0.118451)
(0.148929 -1.31325e-06 0.108184)
(0.205957 -0.234553 0.118451)
(0.43242 -0.403716 0.148866)
(0.551749 -0.551751 0.189457)
(0.639245 -0.82324 0.240486)
(0.531068 0.77221 0.767583)
(0.460129 0.46013 0.547492)
(0.363516 0.332708 0.425358)
(0.171717 0.193868 0.333893)
(0.125291 -1.36754e-06 0.304791)
(0.171717 -0.193871 0.333893)
(0.363517 -0.33271 0.425358)
(0.460129 -0.460131 0.547492)
(0.531068 -0.77221 0.767582)
(0.242605 0.10315 0.938246)
(0.209525 0.209525 0.709617)
(0.162824 0.190114 0.576445)
(0.103775 0.113984 0.476059)
(0.0839619 -1.41159e-06 0.443611)
(0.103775 -0.113986 0.476059)
(0.162824 -0.190117 0.576445)
(0.209525 -0.209527 0.709616)
(0.242605 -0.10315 0.938246)
(0.111991 0.0435808 0.764184)
(0.098328 0.0983287 0.680826)
(0.078518 0.0991501 0.601863)
(0.0581805 0.0610351 0.540953)
(0.0505354 -1.45036e-06 0.519436)
(0.0581805 -0.0610378 0.540953)
(0.0785181 -0.0991524 0.601863)
(0.0983281 -0.0983301 0.680826)
(0.111991 -0.0435812 0.764183)
(0.0526304 0.0197919 0.677436)
(0.0472045 0.0472052 0.643245)
(0.0391942 0.0502415 0.60215)
(0.0317093 0.0315563 0.569342)
(0.0287935 -1.47725e-06 0.557197)
(0.0317094 -0.0315591 0.569342)
(0.0391943 -0.0502437 0.60215)
(0.0472047 -0.0472066 0.643245)
(0.0526304 -0.0197924 0.677436)
(0.025168 0.00939021 0.634695)
(0.0230424 0.0230431 0.619474)
(0.0198663 0.025247 0.59887)
(0.0170166 0.0160812 0.581902)
(0.0158962 -1.49276e-06 0.575459)
(0.0170167 -0.016084 0.581902)
(0.0198665 -0.0252493 0.59887)
(0.0230426 -0.0230446 0.619474)
(0.025168 -0.00939063 0.634695)
(0.012206 0.00457055 0.613601)
(0.0113798 0.0113805 0.606466)
(0.0101354 0.0126697 0.596215)
(0.00903708 0.0081445 0.587571)
(0.00860453 -1.49557e-06 0.58424)
(0.00903716 -0.00814731 0.587571)
(0.0101356 -0.012672 0.596215)
(0.01138 -0.0113819 0.606466)
(0.0122061 -0.00457098 0.613601)
(0.00596789 0.00225504 0.603149)
(0.00565613 0.00565673 0.59969)
(0.00518429 0.00635259 0.594567)
(0.00477039 0.00410649 0.590174)
(0.00460744 -1.48861e-06 0.588465)
(0.00477048 -0.00410929 0.590174)
(0.00518444 -0.00635487 0.594567)
(0.0056563 -0.00565813 0.59969)
(0.00596794 -0.00225546 0.603149)
(0.00289202 0.00111245 0.597974)
(0.00279821 0.00279876 0.596246)
(0.00265632 0.0031536 0.593637)
(0.00253263 0.00204249 0.591368)
(0.0024842 -1.47052e-06 0.590477)
(0.00253272 -0.00204525 0.591368)
(0.00265648 -0.00315585 0.593637)
(0.0027984 -0.00280014 0.596246)
(0.0028921 -0.00111288 0.597974)
(0.00128528 0.000527452 0.595481)
(0.00131975 0.00132023 0.594565)
(0.00137378 0.00147436 0.593143)
(0.00142362 0.000945842 0.591867)
(0.00144454 -1.44415e-06 0.591354)
(0.0014237 -0.000948556 0.591867)
(0.00137394 -0.00147656 0.593143)
(0.00131993 -0.00132159 0.594565)
(0.00128535 -0.000527866 0.595481)
(0.000267664 0.000196432 0.594472)
(0.000460311 0.000460723 0.593896)
(0.000758023 0.000456191 0.592916)
(0.00102933 0.000254002 0.591941)
(0.00114252 -1.4077e-06 0.591512)
(0.00102941 -0.000256645 0.591941)
(0.000758178 -0.000458343 0.592917)
(0.000460502 -0.00046205 0.593896)
(0.000267767 -0.000196844 0.594472)
(-0.000757867 -4.8762e-05 0.594552)
(-0.000235443 -0.000235103 0.594032)
(0.000572711 -0.000480067 0.592933)
(0.00132633 -0.000458605 0.591587)
(0.00165602 -1.36351e-06 0.590883)
(0.00132641 0.000456045 0.591587)
(0.000572856 0.00047799 0.592933)
(-0.000235272 0.000233829 0.594033)
(-0.000757779 4.83695e-05 0.594552)
(-0.00246245 -0.000323341 0.595997)
(-0.00115837 -0.0011581 0.595328)
(0.000862525 -0.00198886 0.59343)
(0.00283422 -0.00179652 0.590568)
(0.00378792 -1.30941e-06 0.588749)
(0.0028343 0.00179406 0.590568)
(0.000862671 0.00198686 0.59343)
(-0.00115819 0.00115687 0.595328)
(-0.00246233 0.000322955 0.595997)
(-0.00594893 -0.000717802 0.600019)
(-0.00280216 -0.00280197 0.599081)
(0.0020772 -0.00524016 0.595352)
(0.0072335 -0.00513977 0.588544)
(0.0102483 -1.248e-06 0.583098)
(0.00723357 0.00513743 0.588544)
(0.00207733 0.00523826 0.595352)
(-0.002802 0.00280081 0.599082)
(-0.00594883 0.000717442 0.600019)
(-0.0130773 -0.00126056 0.609497)
(-0.00582457 -0.00582445 0.608419)
(0.00538984 -0.0125263 0.601628)
(0.018943 -0.0140502 0.586396)
(0.0298931 -1.17711e-06 0.56982)
(0.0189431 0.014048 0.586396)
(0.00538997 0.0125245 0.601628)
(-0.0058244 0.00582335 0.608419)
(-0.0130772 0.00126021 0.609497)
(-0.0259699 -0.00179565 0.629887)
(-0.0106707 -0.0106707 0.629183)
(0.0127664 -0.0272628 0.619774)
(0.047784 -0.0369482 0.593143)
(0.0943725 -1.09885e-06 0.549217)
(0.0477841 0.0369461 0.593144)
(0.0127665 0.0272611 0.619774)
(-0.0106706 0.0106697 0.629183)
(-0.0259698 0.00179533 0.629888)
(-0.0424549 -0.00196508 0.667533)
(-0.0159379 -0.0159379 0.667355)
(0.0239878 -0.0485654 0.662245)
(0.104284 -0.0846072 0.646029)
(0.331942 -1.01086e-06 0.61457)
(0.104284 0.0846053 0.646029)
(0.0239879 0.0485639 0.662245)
(-0.0159377 0.0159369 0.667356)
(-0.0424548 0.00196477 0.667534)
(-0.0424756 -0.00197339 0.715253)
(-0.0159588 -0.0159589 0.715394)
(0.0239664 -0.0485893 0.720448)
(0.104262 -0.0846227 0.736614)
(0.33192 -9.15584e-07 0.768053)
(0.104262 0.084621 0.736614)
(0.0239665 0.0485879 0.720448)
(-0.0159587 0.0159581 0.715395)
(-0.0424755 0.00197313 0.715254)
(-0.0260414 -0.00182445 0.752956)
(-0.0107433 -0.0107435 0.753607)
(0.0126921 -0.0273454 0.762933)
(0.0477084 -0.037002 0.78949)
(0.0942962 -8.11157e-07 0.833388)
(0.0477084 0.0370005 0.78949)
(0.0126922 0.0273442 0.762933)
(-0.0107432 0.0107428 0.753607)
(-0.0260413 0.0018242 0.752957)
(-0.0132321 -0.00132306 0.773486)
(-0.00598225 -0.00598255 0.774468)
(0.00522769 -0.0127058 0.781112)
(0.0187769 -0.0141672 0.796215)
(0.0297255 -6.99806e-07 0.81274)
(0.018777 0.0141658 0.796215)
(0.00522777 0.0127048 0.781112)
(-0.00598215 0.00598191 0.774469)
(-0.013232 0.00132286 0.773487)
(-0.00625683 -0.000842674 0.78325)
(-0.00311747 -0.00311785 0.784005)
(0.00175046 -0.00559892 0.787457)
(0.0068967 -0.00537353 0.794021)
(0.0099075 -5.80037e-07 0.79937)
(0.00689674 0.00537245 0.794021)
(0.00175053 0.00559806 0.787457)
(-0.00311736 0.00311731 0.784006)
(-0.00625669 0.000842491 0.783251)
(-0.00306037 -0.000567473 0.787832)
(-0.00177527 -0.00177575 0.788152)
(0.000216442 -0.00269035 0.789516)
(0.00216254 -0.00225365 0.79191)
(0.00310615 -4.54791e-07 0.793544)
(0.00216257 0.00225281 0.79191)
(0.000216499 0.00268969 0.789516)
(-0.00177519 0.00177534 0.788153)
(-0.00306026 0.000567336 0.787833)
(-0.00190722 -0.000522612 0.790363)
(-0.00143327 -0.00143385 0.790211)
(-0.000699503 -0.00184114 0.790283)
(-1.09521e-05 -0.00134535 0.790729)
(0.000293157 -3.23638e-07 0.79108)
(-1.09255e-05 0.00134475 0.79073)
(-0.000699451 0.00184067 0.790283)
(-0.00143319 0.00143355 0.790212)
(-0.00190707 0.000522501 0.790364)
(-0.00192388 -0.000719332 0.792535)
(-0.00185495 -0.00185562 0.791823)
(-0.00174705 -0.00217204 0.790832)
(-0.00164108 -0.0014569 0.790088)
(-0.00159261 -1.89223e-07 0.789842)
(-0.00164106 0.00145656 0.790088)
(-0.00174702 0.00217179 0.790833)
(-0.0018549 0.00185547 0.791823)
(-0.00192377 0.000719271 0.792535)
(-0.00285439 -0.0012347 0.79553)
(-0.00313538 -0.00313615 0.793991)
(-0.00356685 -0.00357571 0.791658)
(-0.00393681 -0.00233571 0.789674)
(-0.00407909 -5.08393e-08 0.788914)
(-0.00393679 0.00233562 0.789675)
(-0.00356682 0.00357566 0.791658)
(-0.00313532 0.0031361 0.793991)
(-0.00285425 0.00123467 0.795531)
(-0.00482998 -0.00225883 0.80065)
(-0.00572707 -0.00572793 0.797746)
(-0.0071169 -0.00648849 0.793251)
(-0.00830503 -0.00420048 0.789427)
(-0.00876223 8.99198e-08 0.787962)
(-0.00830502 0.00420066 0.789428)
(-0.0071169 0.00648867 0.793251)
(-0.00572706 0.00572804 0.797747)
(-0.00482987 0.00225884 0.800651)
(-0.00818579 -0.00413871 0.809801)
(-0.0105345 -0.0105354 0.804684)
(-0.0142449 -0.011894 0.79651)
(-0.0173495 -0.00762388 0.789777)
(-0.0185235 2.34492e-07 0.787263)
(-0.0173495 0.00762434 0.789777)
(-0.0142449 0.0118944 0.796511)
(-0.0105344 0.0105356 0.804684)
(-0.00818567 0.00413875 0.809802)
(-0.0130874 -0.00737638 0.825897)
(-0.019018 -0.019019 0.817734)
(-0.0288282 -0.0213956 0.803544)
(-0.0366789 -0.0134473 0.792765)
(-0.0395542 3.82667e-07 0.788982)
(-0.036679 0.013448 0.792765)
(-0.0288282 0.0213962 0.803545)
(-0.019018 0.0190193 0.817734)
(-0.0130872 0.00737646 0.825898)
(-0.0183679 -0.0123024 0.852711)
(-0.0328877 -0.0328887 0.842836)
(-0.0595707 -0.036863 0.820522)
(-0.0790712 -0.0221858 0.806928)
(-0.0858328 5.32057e-07 0.802885)
(-0.0790712 0.0221868 0.806929)
(-0.0595707 0.0368638 0.820523)
(-0.0328877 0.0328892 0.842837)
(-0.0183677 0.0123025 0.852711)
(-0.0182152 -0.0172509 0.891876)
(-0.0512062 -0.0512072 0.892817)
(-0.128285 -0.0573035 0.871466)
(-0.174993 -0.0310849 0.869495)
(-0.189829 6.7108e-07 0.871122)
(-0.174992 0.0310862 0.869495)
(-0.128285 0.0573045 0.871467)
(-0.0512061 0.0512077 0.892818)
(-0.018215 0.017251 0.891876)
(0.00529106 -0.0113606 0.928168)
(-0.0532968 -0.0532979 0.987385)
(-0.300368 -0.0601859 1.07742)
(-0.401185 -0.0225307 1.15286)
(-0.429702 7.83122e-07 1.18033)
(-0.401185 0.0225321 1.15286)
(-0.300368 0.0601871 1.07742)
(-0.0532966 0.0532985 0.987385)
(0.00529139 0.0113607 0.928168)
(0.0882748 0.0419663 0.882565)
(0.098047 0.0980457 1.02032)
(0.0452312 0.108169 1.2938)
(0.0523488 0.0718278 1.46995)
(0.0549452 8.27095e-07 1.52771)
(0.0523488 -0.0718262 1.46995)
(0.0452312 -0.108167 1.2938)
(0.0980473 -0.0980452 1.02032)
(0.0882751 -0.0419663 0.882565)
(0.204789 0.12639 0.649449)
(0.357935 0.357934 0.781788)
(0.837448 0.389449 1.04289)
(1.05449 0.211386 1.18725)
(1.11558 7.66221e-07 1.23165)
(1.05449 -0.211384 1.18725)
(0.837448 -0.389448 1.04288)
(0.357935 -0.357933 0.781787)
(0.204789 -0.12639 0.649449)
(0.274536 0.174305 0.237827)
(0.491483 0.491482 0.285742)
(1.13701 0.51363 0.371375)
(1.32539 0.260588 0.409923)
(1.36937 6.15351e-07 0.420577)
(1.32539 -0.260587 0.409923)
(1.13701 -0.513629 0.371375)
(0.491483 -0.491481 0.285741)
(0.274536 -0.174305 0.237827)
(0.622676 0.763991 0.188851)
(0.403713 0.43242 0.148866)
(0.276884 0.276885 0.119948)
(0.172445 0.14584 0.101986)
(0.138229 -1.26392e-06 0.0959797)
(0.172445 -0.145843 0.101986)
(0.276884 -0.276887 0.119947)
(0.403713 -0.432421 0.148866)
(0.622676 -0.763991 0.18885)
(0.518416 0.724006 0.607523)
(0.332707 0.363517 0.425358)
(0.230003 0.230005 0.337928)
(0.145259 0.121872 0.288258)
(0.117646 -1.30795e-06 0.272099)
(0.14526 -0.121875 0.288258)
(0.230004 -0.230007 0.337928)
(0.332707 -0.363518 0.425358)
(0.518416 -0.724007 0.607523)
(0.245534 0.0818251 0.765385)
(0.190113 0.162824 0.576445)
(0.139784 0.139785 0.480387)
(0.098236 0.0800116 0.423957)
(0.0834605 -1.34468e-06 0.405284)
(0.0982362 -0.0800141 0.423957)
(0.139784 -0.139787 0.480386)
(0.190114 -0.162826 0.576445)
(0.245534 -0.0818255 0.765385)
(0.117663 0.035066 0.667218)
(0.099149 0.0785187 0.601863)
(0.0775158 0.0775169 0.543588)
(0.0594793 0.0467699 0.503476)
(0.0527476 -1.37746e-06 0.489367)
(0.0594795 -0.0467725 0.503476)
(0.0775161 -0.077519 0.543588)
(0.0991495 -0.0785201 0.601863)
(0.117664 -0.0350664 0.667218)
(0.0568918 0.0164705 0.629117)
(0.0502404 0.0391949 0.602151)
(0.0413965 0.0413976 0.570465)
(0.0339306 0.0257904 0.546344)
(0.031075 -1.40041e-06 0.537481)
(0.0339308 -0.0257931 0.546344)
(0.0413969 -0.0413998 0.570465)
(0.0502409 -0.0391962 0.60215)
(0.0568923 -0.016471 0.629116)
(0.0277354 0.00809995 0.61127)
(0.025246 0.019867 0.59887)
(0.0217096 0.0217106 0.582211)
(0.0186903 0.0137855 0.568748)
(0.0175208 -1.41333e-06 0.563661)
(0.0186905 -0.0137882 0.568748)
(0.02171 -0.0217128 0.582211)
(0.0252465 -0.0198684 0.59887)
(0.0277359 -0.00810039 0.61127)
(0.0136173 0.0040708 0.602248)
(0.0126687 0.0101361 0.596215)
(0.0112745 0.0112755 0.587566)
(0.0100737 0.00724022 0.580326)
(0.00960529 -1.41526e-06 0.577542)
(0.0100739 -0.00724288 0.580326)
(0.0112749 -0.0112776 0.587566)
(0.0126692 -0.0101375 0.596215)
(0.0136178 -0.00407124 0.602248)
(0.00670669 0.00206671 0.597582)
(0.00635172 0.00518488 0.594567)
(0.00582092 0.00582179 0.590103)
(0.00536104 0.00376213 0.586285)
(0.00518104 -1.40794e-06 0.584802)
(0.00536124 -0.00376478 0.586285)
(0.0058213 -0.00582397 0.590103)
(0.00635221 -0.00518624 0.594567)
(0.00670719 -0.00206714 0.597582)
(0.00325888 0.0010559 0.595155)
(0.00315282 0.00265685 0.593637)
(0.00299327 0.00299405 0.591345)
(0.00285503 0.00193928 0.589353)
(0.00280106 -1.3909e-06 0.588571)
(0.00285523 -0.0019419 0.589353)
(0.00299364 -0.00299619 0.591345)
(0.00315331 -0.0026582 0.593637)
(0.00325939 -0.00105633 0.595156)
(0.00143269 0.000548613 0.593885)
(0.00147368 0.00137425 0.593143)
(0.00153653 0.00153722 0.591986)
(0.00159317 0.00098832 0.590947)
(0.00161648 -1.3657e-06 0.59053)
(0.00159336 -0.000990888 0.590948)
(0.0015369 -0.00153931 0.591986)
(0.00147416 -0.00137557 0.593143)
(0.00143319 -0.000549034 0.593885)
(0.000229129 0.000314007 0.593194)
(0.000455614 0.000758425 0.592917)
(0.000798125 0.000798705 0.592392)
(0.00110268 0.000483358 0.591833)
(0.00122684 -1.33165e-06 0.591582)
(0.00110288 -0.00048586 0.591833)
(0.000798479 -0.000800746 0.592393)
(0.000456085 -0.000759706 0.592917)
(0.000229626 -0.000314419 0.593194)
(-0.00110823 0.000271428 0.592765)
(-0.000480537 0.000573043 0.592933)
(0.00045353 0.000454003 0.592869)
(0.0012869 0.000177926 0.592502)
(0.00163489 -1.28967e-06 0.592253)
(0.00128709 -0.000180348 0.592502)
(0.000453874 -0.000455978 0.592869)
(-0.000480087 -0.000574281 0.592934)
(-0.00110776 -0.000271824 0.592765)
(-0.00362568 0.000482585 0.592448)
(-0.00198922 0.000862786 0.59343)
(0.000366899 0.000367261 0.593952)
(0.00248205 -0.000132481 0.593502)
(0.00341088 -1.23917e-06 0.592985)
(0.00248223 0.000130155 0.593502)
(0.000367225 -0.000369153 0.593952)
(-0.00198878 -0.000863973 0.59343)
(-0.00362522 -0.000482967 0.592448)
(-0.00950999 0.00125392 0.592452)
(-0.0052404 0.00207738 0.595352)
(0.00052566 0.00052591 0.596979)
(0.0057466 -0.000789593 0.595979)
(0.0082668 -1.18105e-06 0.59452)
(0.00574677 0.000787377 0.595979)
(0.00052597 -0.000527711 0.596979)
(-0.00524 -0.00207851 0.595353)
(-0.00950956 -0.00125428 0.592452)
(-0.0237738 0.00338331 0.594569)
(-0.0125264 0.00538995 0.601628)
(0.000993772 0.000993908 0.605258)
(0.0133707 -0.00259124 0.602897)
(0.0204245 -1.11468e-06 0.598967)
(0.0133709 0.00258915 0.602897)
(0.000994061 -0.000995602 0.605258)
(-0.012526 -0.00539101 0.601628)
(-0.0237734 -0.00338365 0.594569)
(-0.0566604 0.0083129 0.606923)
(-0.0272628 0.0127664 0.619774)
(0.00179439 0.00179441 0.625521)
(0.0287364 -0.00708069 0.621393)
(0.0487805 -1.04039e-06 0.613336)
(0.0287365 0.00707874 0.621393)
(0.00179466 -0.00179599 0.625521)
(-0.0272625 -0.0127674 0.619774)
(-0.05666 -0.00831321 0.606923)
(-0.117608 0.0162342 0.654332)
(-0.0485653 0.0239877 0.662245)
(0.0026135 0.0026134 0.665532)
(0.0506508 -0.0147759 0.66304)
(0.102433 -9.57736e-07 0.657821)
(0.0506509 0.0147741 0.66304)
(0.00261374 -0.00261485 0.665532)
(-0.048565 -0.0239886 0.662245)
(-0.117608 -0.0162345 0.654333)
(-0.117632 0.0162257 0.728399)
(-0.0485891 0.0239663 0.720448)
(0.00258926 0.00258904 0.717103)
(0.0506261 -0.0147918 0.719544)
(0.102408 -8.67215e-07 0.724743)
(0.0506262 0.0147901 0.719545)
(0.00258948 -0.00259035 0.717103)
(-0.0485888 -0.0239671 0.720448)
(-0.117632 -0.016226 0.728399)
(-0.0567415 0.00828346 0.775839)
(-0.0273451 0.0126919 0.762933)
(0.0017102 0.00170986 0.757101)
(0.0286505 -0.00713574 0.761153)
(0.048694 -7.68726e-07 0.769181)
(0.0286506 0.0071343 0.761153)
(0.0017104 -0.00171101 0.757101)
(-0.0273448 -0.0126927 0.762933)
(-0.0567412 -0.00828369 0.77584)
(-0.0239494 0.00331905 0.788271)
(-0.0127053 0.0052274 0.781112)
(0.000809771 0.000809297 0.777329)
(0.0131822 -0.00271149 0.779556)
(0.0202342 -6.62515e-07 0.783433)
(0.0131823 0.00271026 0.779557)
(0.000809937 -0.000810286 0.777329)
(-0.0127051 -0.00522801 0.781113)
(-0.0239492 -0.00331925 0.788272)
(-0.00985945 0.00112455 0.790549)
(-0.00559831 0.00175008 0.787457)
(0.00015474 0.000154132 0.785537)
(0.00536424 -0.00103185 0.78628)
(0.0078799 -5.4921e-07 0.787638)
(0.00536432 0.00103083 0.78628)
(0.000154876 -0.000154944 0.785538)
(-0.00559813 -0.00175059 0.787457)
(-0.00985923 -0.00112472 0.79055)
(-0.00430446 0.000226942 0.790872)
(-0.0026896 0.000215973 0.789516)
(-0.000366628 -0.000367378 0.788422)
(0.00171945 -0.000611218 0.78837)
(0.00263679 -4.2978e-07 0.78869)
(0.00171951 0.00061042 0.788371)
(-0.000366521 0.00036675 0.788423)
(-0.00268946 -0.000216357 0.789517)
(-0.0043043 -0.000227068 0.790873)
(-0.0024129 -0.000231777 0.791187)
(-0.00184025 -0.000700067 0.790283)
(-0.00099055 -0.000991446 0.789223)
(-0.000230997 -0.000763677 0.788606)
(8.7936e-05 -3.05714e-07 0.788467)
(-0.000230957 0.000763113 0.788606)
(-0.000990476 0.000991012 0.789223)
(-0.00184015 0.0006998 0.790284)
(-0.00241277 0.000231685 0.791187)
(-0.00225735 -0.000676661 0.792005)
(-0.002171 -0.00174771 0.790833)
(-0.00204344 -0.00204449 0.789138)
(-0.0019262 -0.00136681 0.787762)
(-0.00187544 -1.77728e-07 0.787255)
(-0.00192618 0.00136648 0.787763)
(-0.0020434 0.00204425 0.789138)
(-0.00217095 0.00174758 0.790833)
(-0.00225728 0.000676615 0.792006)
(-0.00325906 -0.00140471 0.793785)
(-0.00357452 -0.0035676 0.791658)
(-0.00406045 -0.00406163 0.788415)
(-0.00447879 -0.00264665 0.785647)
(-0.00464029 -4.73185e-08 0.784582)
(-0.00447878 0.00264657 0.785647)
(-0.00406044 0.0040616 0.788416)
(-0.00357451 0.00356759 0.791659)
(-0.00325902 0.0014047 0.793786)
(-0.00547615 -0.00280367 0.79742)
(-0.00648718 -0.00711774 0.793251)
(-0.00805406 -0.00805537 0.786742)
(-0.00939506 -0.0052001 0.781244)
(-0.00991154 8.6401e-08 0.779149)
(-0.00939507 0.00520027 0.781245)
(-0.00805408 0.00805554 0.786743)
(-0.00648722 0.00711786 0.793251)
(-0.00547617 0.00280371 0.797421)
(-0.00925151 -0.00557439 0.804759)
(-0.0118926 -0.0142459 0.79651)
(-0.0160665 -0.0160679 0.783048)
(-0.0195648 -0.0102401 0.77216)
(-0.0208893 2.24242e-07 0.768145)
(-0.0195648 0.0102406 0.77216)
(-0.0160665 0.0160683 0.783048)
(-0.0118927 0.0142461 0.796511)
(-0.00925156 0.00557446 0.80476)
(-0.0147433 -0.0110525 0.81953)
(-0.0213941 -0.0288291 0.803544)
(-0.0324042 -0.0324057 0.774204)
(-0.0412436 -0.0201024 0.752818)
(-0.0444875 3.71503e-07 0.745453)
(-0.0412436 0.0201031 0.752818)
(-0.0324043 0.0324063 0.774204)
(-0.0213942 0.0288295 0.803545)
(-0.0147434 0.0110526 0.81953)
(-0.020609 -0.02156 0.848908)
(-0.0368615 -0.0595717 0.820522)
(-0.0667925 -0.066794 0.749452)
(-0.0887977 -0.0389912 0.708795)
(-0.0964549 5.27212e-07 0.696537)
(-0.0887977 0.0389922 0.708795)
(-0.0667925 0.0667948 0.749453)
(-0.0368616 0.0595721 0.820523)
(-0.0206091 0.0215601 0.848909)
(-0.0203455 -0.0394384 0.904671)
(-0.057302 -0.128286 0.871467)
(-0.144132 -0.144133 0.663874)
(-0.197378 -0.0730172 0.59624)
(-0.214404 6.78662e-07 0.580327)
(-0.197378 0.0730185 0.596241)
(-0.144132 0.144134 0.663874)
(-0.057302 0.128286 0.871467)
(-0.0203455 0.0394385 0.904672)
(0.00586951 -0.0547646 0.992751)
(-0.0601843 -0.300369 1.07742)
(-0.342019 -0.34202 0.298376)
(-0.460587 -0.122538 0.257247)
(-0.49461 7.89835e-07 0.248856)
(-0.460587 0.122539 0.257247)
(-0.342019 0.342021 0.298377)
(-0.0601843 0.30037 1.07742)
(0.00586947 0.0547646 0.992752)
(0.0977883 0.045231 1.0072)
(0.108171 0.045231 1.2938)
(0.10817 -0.045231 1.2938)
(0.0977881 -0.045231 1.0072)
(0.22451 0.231836 0.765663)
(0.389451 0.837447 1.04288)