/*--------------------------------*- C++ -*----------------------------------*\
  =========                 |
  \\      /  F ield         | OpenFOAM: The Open Source CFD Toolbox
   \\    /   O peration     | Website:  https://openfoam.org
    \\  /    A nd           | Version:  6
     \\/     M anipulation  |
\*---------------------------------------------------------------------------*/
FoamFile
{
    version     2.0;
    format      ascii;
    class       volScalarField;
    location    "0.6";
    object      alpha_gas;
}
// * * * * * * * * * * * * * * * * * * * * * * * * * * * * * * * * * * * * * //

dimensions      [0 0 0 0 0 0 0];

internalField   nonuniform List<scalar> 
3029
(
1.7821e-14
1.87689e-14
7.27419e-15
-3.08626e-14
-9.48862e-14
-3.0859e-14
7.276e-15
1.87688e-14
1.78208e-14
-8.22409e-14
-1.3588e-13
-9.59785e-14
8.46625e-13
2.79439e-12
8.4654e-13
-9.60024e-14
-1.35876e-13
-8.22375e-14
3.0859e-13
7.62371e-13
3.01925e-13
-1.13747e-11
-3.12771e-11
-1.13737e-11
3.02128e-13
7.62347e-13
3.08578e-13
-3.25558e-12
-7.88806e-12
-3.09587e-12
1.02121e-10
2.55408e-10
1.02113e-10
-3.09798e-12
-7.88778e-12
-3.25544e-12
2.23651e-11
6.03593e-11
2.8149e-11
-7.46303e-10
-1.78663e-09
-7.46243e-10
2.81651e-11
6.03569e-11
2.23641e-11
-1.33182e-10
-4.04524e-10
-2.49587e-10
4.76849e-09
1.12509e-08
4.76812e-09
-2.49689e-10
-4.04506e-10
-1.33176e-10
6.81686e-10
2.40228e-09
1.86403e-09
-2.80288e-08
-6.60196e-08
-2.80267e-08
1.8646e-09
2.40216e-09
6.81648e-10
-3.20293e-09
-1.33367e-08
-1.27948e-08
1.55363e-07
3.68742e-07
1.55352e-07
-1.27978e-08
-1.3336e-08
-3.20274e-09
1.38207e-08
7.06373e-08
8.21897e-08
-8.30592e-07
-1.99888e-06
-8.30537e-07
8.22045e-08
7.06332e-08
1.38198e-08
-5.62821e-08
-3.67957e-07
-5.17685e-07
4.33311e-06
1.06483e-05
4.33284e-06
-5.17757e-07
-3.67934e-07
-5.6278e-08
2.04671e-07
1.89016e-06
3.19277e-06
-2.23115e-05
-5.63028e-05
-2.23102e-05
3.1931e-06
1.89004e-06
2.04654e-07
-6.09465e-07
-9.63531e-06
-1.94964e-05
0.00011396
0.000297295
0.000113954
-1.94978e-05
-9.63475e-06
-6.094e-07
6.93217e-07
4.79168e-05
0.000118264
-0.000579637
-0.00157935
-0.000579612
0.00011827
4.79142e-05
6.92992e-07
8.85946e-06
-0.000227766
-0.000720612
0.00292904
0.00856376
0.00292894
-0.00072063
-0.000227755
8.86005e-06
-0.000104005
0.000954733
0.0044748
-0.0143916
-0.0498901
-0.0143912
0.00447485
0.000954693
-0.000104005
0.000693962
-0.0025025
-0.0282713
0.0558875
0.417343
0.0558861
-0.0282712
-0.00250239
0.000693953
-0.00228513
-0.00975375
0.120407
0.685335
0.999123
0.685333
0.120406
-0.00975367
-0.00228508
-0.00828863
0.00861614
0.342552
0.954123
1.02528
0.954121
0.342548
0.00861565
-0.00828852
-0.0120906
0.0342667
0.467601
1.03015
1.03369
1.03014
0.467597
0.0342655
-0.0120905
-0.012722
0.0546119
0.521426
1.04388
1.03592
1.04388
0.521421
0.0546101
-0.0127219
-0.0111835
0.0687524
0.540161
1.03781
1.03581
1.03781
0.540154
0.0687501
-0.0111834
-0.00846607
0.0789207
0.543973
1.02549
1.03439
1.02549
0.543967
0.0789181
-0.00846599
-0.00516501
0.0870133
0.542026
1.01137
1.03196
1.01137
0.542018
0.0870105
-0.00516499
-0.00158795
0.0941511
0.538141
0.996933
1.02872
0.996929
0.538134
0.0941481
-0.00158798
0.00210796
0.100967
0.53399
0.982656
1.02475
0.982652
0.533982
0.100963
0.00210786
0.00583456
0.107888
0.53039
0.968646
1.02006
0.968643
0.530383
0.107885
0.00583438
0.00954056
0.115292
0.527777
0.954672
1.01445
0.954668
0.52777
0.115289
0.0095403
0.0132186
0.123533
0.526325
0.940328
1.00777
0.940325
0.526319
0.12353
0.0132183
0.0169502
0.132614
0.524444
0.922429
0.996902
0.922426
0.524438
0.132611
0.0169498
0.0208834
0.141514
0.519838
0.900734
0.983501
0.900731
0.519833
0.141511
0.0208829
0.0250696
0.146148
0.498117
0.846629
0.933108
0.846626
0.498113
0.146146
0.025069
0.0261853
0.138101
0.468999
0.815039
0.911916
0.815037
0.468997
0.138099
0.0261847
0.0214847
0.102416
0.404264
0.808247
0.951754
0.808245
0.404262
0.102415
0.0214841
0.0128198
0.039242
0.2184
0.637038
0.915059
0.637038
0.2184
0.0392412
0.0128192
1.87689e-14
1.74004e-14
5.06904e-15
-2.78209e-14
-6.79394e-14
-2.78186e-14
5.07002e-15
1.74002e-14
1.87688e-14
-1.3588e-13
-1.41005e-13
-8.85447e-14
5.59584e-13
1.77956e-12
5.59528e-13
-8.8558e-14
-1.41001e-13
-1.35876e-13
7.62374e-13
8.59865e-13
6.00235e-13
-5.57341e-12
-1.71494e-11
-5.57284e-12
6.0034e-13
8.59842e-13
7.62357e-13
-7.8881e-12
-7.52978e-12
-6.52745e-12
3.77193e-11
1.21165e-10
3.77151e-11
-6.52821e-12
-7.52955e-12
-7.88792e-12
6.03597e-11
5.22652e-11
5.56165e-11
-2.15681e-10
-7.57041e-10
-2.15655e-10
5.56206e-11
5.22635e-11
6.03583e-11
-4.04527e-10
-3.21451e-10
-4.06842e-10
1.1017e-09
4.37738e-09
1.10155e-09
-4.06861e-10
-3.21439e-10
-4.04518e-10
2.4023e-09
1.74514e-09
2.56282e-09
-5.31923e-09
-2.41998e-08
-5.31841e-09
2.5629e-09
1.74508e-09
2.40225e-09
-1.33368e-08
-8.78951e-09
-1.48908e-08
2.43781e-08
1.29532e-07
2.43739e-08
-1.48911e-08
-8.78916e-09
-1.33365e-08
7.06379e-08
4.16544e-08
8.1935e-08
-1.07004e-07
-6.80861e-07
-1.06983e-07
8.19355e-08
4.16527e-08
7.06364e-08
-3.6796e-07
-1.91459e-07
-4.43382e-07
4.34226e-07
3.53187e-06
4.34124e-07
-4.43381e-07
-1.9145e-07
-3.67953e-07
1.89018e-06
8.46412e-07
2.36946e-06
-1.55294e-06
-1.82015e-05
-1.55244e-06
2.36944e-06
8.4637e-07
1.89015e-06
-9.63537e-06
-3.59214e-06
-1.26028e-05
3.95118e-06
9.33237e-05
3.94909e-06
-1.26026e-05
-3.59194e-06
-9.63521e-06
4.79169e-05
1.38926e-05
6.61739e-05
3.76291e-06
-0.000476923
3.77142e-06
6.61728e-05
1.38918e-05
4.79162e-05
-0.000227766
-4.46213e-05
-0.000340629
-0.000177413
0.00241191
-0.000177444
-0.000340623
-4.46189e-05
-0.000227763
0.000954733
7.03132e-05
0.00166136
0.00214657
-0.0116851
0.00214666
0.00166133
7.03079e-05
0.00095472
-0.0025025
0.000484779
-0.00679255
-0.0229981
0.0420601
-0.0229982
-0.00679239
0.000484776
-0.00250246
-0.00975375
-0.00463721
0.00939026
0.223764
0.593545
0.223762
0.0093899
-0.00463711
-0.00975372
0.00861606
-0.00763081
0.0762966
0.506316
0.876094
0.506313
0.076295
-0.00763071
0.00861588
0.0342665
-0.00379139
0.136401
0.644709
0.956156
0.644706
0.136398
-0.00379141
0.0342661
0.0546115
0.00426582
0.175061
0.69726
0.969201
0.697255
0.175058
0.00426562
0.0546109
0.0687518
0.0139628
0.19846
0.711718
0.961043
0.711713
0.198456
0.0139624
0.068751
0.0789198
0.0240855
0.213779
0.711086
0.946329
0.711081
0.213774
0.0240849
0.0789189
0.0870122
0.0342064
0.225219
0.704898
0.929822
0.704892
0.225214
0.0342056
0.0870112
0.0941496
0.0442262
0.234848
0.696533
0.912708
0.696527
0.234843
0.0442253
0.0941485
0.100965
0.0541841
0.243562
0.68701
0.894945
0.687004
0.243557
0.054183
0.100964
0.107886
0.0642313
0.251782
0.676141
0.875776
0.676136
0.251777
0.0642301
0.107884
0.115289
0.0746183
0.259545
0.662437
0.853043
0.662432
0.25954
0.0746169
0.115288
0.12353
0.0860078
0.267032
0.643014
0.822797
0.64301
0.267027
0.0860063
0.123529
0.13261
0.0984597
0.270213
0.607183
0.771522
0.607179
0.27021
0.0984582
0.132609
0.14151
0.115052
0.275069
0.551772
0.693825
0.551769
0.275066
0.115051
0.141509
0.146144
0.126445
0.219575
0.375366
0.460658
0.375364
0.219574
0.126443
0.146143
0.138097
0.132901
0.203664
0.314858
0.383161
0.314856
0.203662
0.1329
0.138096
0.102413
0.108918
0.246932
0.482302
0.583118
0.482301
0.246931
0.108916
0.102412
0.0392402
0.0319064
0.161776
0.563214
0.845001
0.563214
0.161775
0.0319056
0.0392396
7.2739e-15
5.06881e-15
-2.69183e-15
-1.9498e-14
-3.58253e-14
-1.94969e-14
-2.69125e-15
5.06885e-15
7.27465e-15
-9.59748e-14
-8.85418e-14
-6.1193e-14
2.05299e-13
6.87591e-13
2.05275e-13
-6.11975e-14
-8.85431e-14
-9.59796e-14
3.01895e-13
6.00212e-13
6.42681e-13
-1.02305e-12
-4.54512e-12
-1.02288e-12
6.4271e-13
6.00222e-13
3.01947e-13
-3.09556e-12
-6.52729e-12
-6.96351e-12
2.09642e-13
1.86645e-11
2.08768e-13
-6.96362e-12
-6.52731e-12
-3.09611e-12
2.81469e-11
5.56156e-11
5.33507e-11
3.03308e-11
-5.436e-11
3.03344e-11
5.33509e-11
5.56155e-11
2.8151e-11
-2.49574e-10
-4.06839e-10
-3.43643e-10
-3.10689e-10
3.56412e-11
-3.10701e-10
-3.43643e-10
-4.06837e-10
-2.496e-10
1.86396e-09
2.56281e-09
1.91211e-09
2.17566e-09
9.17204e-10
2.17569e-09
1.91211e-09
2.5628e-09
1.86411e-09
-1.27945e-08
-1.48908e-08
-9.7965e-09
-1.32412e-08
-9.5397e-09
-1.32412e-08
-9.79646e-09
-1.48907e-08
-1.27953e-08
8.21884e-08
8.1935e-08
4.70375e-08
7.44442e-08
6.93156e-08
7.44438e-08
4.70373e-08
8.19347e-08
8.21921e-08
-5.1768e-07
-4.43383e-07
-2.1878e-07
-4.07135e-07
-4.54201e-07
-4.07131e-07
-2.18778e-07
-4.43381e-07
-5.17698e-07
3.19274e-06
2.36947e-06
9.81062e-07
2.18695e-06
2.83413e-06
2.18692e-06
9.81054e-07
2.36946e-06
3.19283e-06
-1.94964e-05
-1.26028e-05
-4.23911e-06
-1.1661e-05
-1.73542e-05
-1.16608e-05
-4.23906e-06
-1.26028e-05
-1.94967e-05
0.000118264
6.6174e-05
1.70758e-05
6.12481e-05
0.000104887
6.1247e-05
1.70755e-05
6.61739e-05
0.000118266
-0.000720613
-0.00034063
-6.09828e-05
-0.000314173
-0.000632538
-0.000314167
-6.09818e-05
-0.000340629
-0.000720617
0.00447481
0.00166136
0.000160801
0.00151312
0.00383122
0.0015131
0.000160798
0.00166136
0.00447482
-0.0282713
-0.00679253
-4.03662e-05
-0.0059213
-0.0228849
-0.00592118
-4.03595e-05
-0.00679252
-0.0282712
0.120407
0.0093902
-0.00221419
0.00444742
0.0792362
0.00444721
-0.00221418
0.00939015
0.120406
0.342551
0.0762963
0.000844877
0.0634055
0.258866
0.0634045
0.000844815
0.076296
0.342549
0.4676
0.1364
0.00986768
0.118047
0.362398
0.118046
0.00986748
0.1364
0.467598
0.521425
0.17506
0.0216335
0.153586
0.406365
0.153584
0.0216331
0.17506
0.521422
0.540159
0.198459
0.0342313
0.175142
0.420539
0.175139
0.0342308
0.198458
0.540156
0.543972
0.213777
0.0469136
0.189127
0.421956
0.189124
0.046913
0.213776
0.543968
0.542023
0.225216
0.0594707
0.199239
0.418244
0.199236
0.0594699
0.225216
0.54202
0.538138
0.234845
0.0718306
0.207418
0.412469
0.207414
0.0718297
0.234844
0.538135
0.533986
0.243558
0.0839812
0.214261
0.405435
0.214258
0.0839802
0.243557
0.533983
0.530386
0.251778
0.0959842
0.219615
0.396533
0.219612
0.095983
0.251777
0.530383
0.527772
0.25954
0.107878
0.2226
0.38374
0.222597
0.107877
0.259539
0.527769
0.526319
0.267026
0.120076
0.221046
0.362569
0.221044
0.120075
0.267025
0.526316
0.524438
0.270207
0.130072
0.209297
0.323131
0.209295
0.130071
0.270206
0.524435
0.519831
0.275063
0.144477
0.174339
0.24408
0.174338
0.144476
0.275062
0.519829
0.498109
0.21957
0.0533112
0.0393539
0.0419206
0.0393538
0.0533112
0.21957
0.498108
0.468992
0.203659
0.203659
0.468991
0.404256
0.246927
0.189971
0.321798
0.44051
0.321797
0.18997
0.246926
0.404255
0.218395
0.16177
0.148954
0.393449
0.629814
0.393449
0.148953
0.16177
0.218395
0.133131
0.393476
0.665368
0.393476
0.133131
0.128497
0.386173
0.6652
0.386172
0.128496
0.128291
0.380769
0.657818
0.380769
0.128291
0.129646
0.37692
0.649108
0.376919
0.129645
0.131461
0.373732
0.640185
0.373732
0.131461
0.133343
0.370715
0.631175
0.370715
0.133343
0.135156
0.367669
0.622077
0.367668
0.135155
0.136848
0.3645
0.612841
0.364499
0.136847
0.138412
0.361249
0.6036
0.361249
0.138411
0.139822
0.357634
0.593773
0.357633
0.139821
0.141073
0.354756
0.58579
0.354755
0.141073
0.142641
0.348497
0.569983
0.348497
0.142641
-3.08631e-14
-2.78214e-14
-1.94983e-14
-1.56864e-14
-1.67123e-14
-1.56865e-14
-1.94974e-14
-2.78207e-14
-3.08612e-14
8.46636e-13
5.59595e-13
2.05306e-13
7.00241e-14
1.27742e-13
7.00215e-14
2.05306e-13
5.5958e-13
8.46602e-13
-1.13748e-11
-5.57352e-12
-1.02311e-12
2.39274e-13
-4.22903e-14
2.39285e-13
-1.02315e-12
-5.57342e-12
-1.13744e-11
1.02122e-10
3.77202e-11
2.09994e-13
-5.65191e-12
-4.73938e-12
-5.65206e-12
2.10352e-13
3.77198e-11
1.02119e-10
-7.46308e-10
-2.15687e-10
3.03293e-11
4.3657e-11
4.28819e-11
4.36586e-11
3.03274e-11
-2.15686e-10
-7.46285e-10
4.76852e-09
1.10173e-09
-3.10684e-10
-2.66739e-10
-2.87047e-10
-2.66751e-10
-3.10677e-10
1.10173e-09
4.76837e-09
-2.80289e-08
-5.31938e-09
2.17565e-09
1.40834e-09
1.6443e-09
1.40841e-09
2.17564e-09
-5.3194e-09
-2.80281e-08
1.55363e-07
2.43787e-08
-1.32412e-08
-6.92708e-09
-8.80929e-09
-6.92744e-09
-1.32412e-08
2.43788e-08
1.55359e-07
-8.30594e-07
-1.07007e-07
7.44443e-08
3.21084e-08
4.5132e-08
3.21101e-08
7.44447e-08
-1.07007e-07
-8.30572e-07
4.33311e-06
4.34237e-07
-4.07136e-07
-1.44665e-07
-2.28642e-07
-1.44672e-07
-4.0714e-07
4.34238e-07
4.333e-06
-2.23114e-05
-1.55298e-06
2.18695e-06
6.24996e-07
1.14559e-06
6.25026e-07
2.18698e-06
-1.55297e-06
-2.23109e-05
0.000113959
3.95126e-06
-1.1661e-05
-2.56756e-06
-5.70466e-06
-2.56767e-06
-1.16612e-05
3.95121e-06
0.000113957
-0.000579635
3.76292e-06
6.12482e-05
9.41725e-06
2.7753e-05
9.41761e-06
6.12488e-05
3.76325e-06
-0.000579625
0.00292903
-0.000177414
-0.000314173
-2.64446e-05
-0.000128298
-2.64454e-05
-0.000314176
-0.000177416
0.00292898
-0.0143916
0.00214658
0.00151312
5.63623e-06
0.000509639
5.63619e-06
0.00151314
0.00214659
-0.0143914
0.0558871
-0.0229981
-0.00592128
0.000652358
-0.00105649
0.000652371
-0.00592132
-0.0229981
0.0558863
0.685335
0.223763
0.00444736
-0.00468082
-0.00822971
-0.00468088
0.0044474
0.223763
0.685333
0.954123
0.506315
0.0634052
-0.00938288
-0.00125581
-0.009383
0.0634054
0.506314
0.954122
1.03015
0.644708
0.118047
-0.00791943
0.0119858
-0.00791959
0.118047
0.644707
1.03014
1.04388
0.697258
0.153585
-0.00221163
0.0237791
-0.00221178
0.153586
0.697257
1.04388
1.03781
0.711717
0.17514
0.00533515
0.0328836
0.00533502
0.175141
0.711715
1.03781
1.02549
0.711084
0.189125
0.0134681
0.0401038
0.013468
0.189126
0.711083
1.02549
1.01137
0.704895
0.199236
0.0216846
0.0462134
0.0216844
0.199237
0.704894
1.01137
0.996933
0.696531
0.207414
0.0297474
0.0516528
0.0297473
0.207415
0.696529
0.99693
0.982656
0.687007
0.214257
0.0375276
0.0565469
0.0375275
0.214258
0.687005
0.982653
0.968647
0.676137
0.21961
0.0448448
0.0607358
0.0448447
0.219611
0.676136
0.968644
0.954672
0.662433
0.222595
0.05135
0.0637374
0.0513499
0.222596
0.662431
0.95467
0.940328
0.64301
0.22104
0.0561495
0.0644228
0.0561494
0.221041
0.643008
0.940326
0.92243
0.607177
0.209291
0.0578341
0.0608765
0.057834
0.209292
0.607176
0.922428
0.900734
0.551766
0.174334
0.0486836
0.0472221
0.0486836
0.174334
0.551765
0.900732
0.846628
0.375361
0.0393513
0.0387609
0.0345123
0.038761
0.0393516
0.375361
0.846627
0.815038
0.314852
0.314853
0.815037
0.808244
0.482298
0.321793
0.262115
0.331122
0.262115
0.321794
0.482298
0.808244
0.637034
0.563209
0.393444
0.293973
0.38244
0.293973
0.393445
0.56321
0.637035
0.393471
0.312566
0.40767
0.312566
0.393471
0.386168
0.319483
0.415474
0.319483
0.386168
0.380764
0.321807
0.416446
0.321807
0.380765
0.376915
0.322444
0.414934
0.322445
0.376915
0.373727
0.322408
0.412507
0.322408
0.373728
0.370711
0.322017
0.409674
0.322017
0.370711
0.367665
0.321374
0.406605
0.321374
0.367665
0.364496
0.320497
0.403332
0.320497
0.364496
0.361245
0.319445
0.399947
0.319445
0.361246
0.35763
0.318029
0.396149
0.318029
0.35763
0.354752
0.316978
0.39315
0.316977
0.354752
0.348494
0.313884
0.386491
0.313884
0.348494
-9.48859e-14
-6.79392e-14
-3.58253e-14
-1.67124e-14
-1.08299e-14
-1.67113e-14
-3.58238e-14
-6.79379e-14
-9.48843e-14
2.79438e-12
1.77956e-12
6.87598e-13
1.27747e-13
1.27914e-14
1.27755e-13
6.8761e-13
1.77955e-12
2.79434e-12
-3.12769e-11
-1.71494e-11
-4.5452e-12
-4.23143e-14
4.28545e-13
-4.23644e-14
-4.5454e-12
-1.71494e-11
-3.12766e-11
2.55407e-10
1.21166e-10
1.86651e-11
-4.73937e-12
-4.60834e-12
-4.73938e-12
1.86667e-11
1.21166e-10
2.55404e-10
-1.78662e-09
-7.57042e-10
-5.43634e-11
4.28826e-11
2.9787e-11
4.28848e-11
-5.4373e-11
-7.5705e-10
-1.78661e-09
1.12509e-08
4.37739e-09
3.56578e-11
-2.87053e-10
-1.67037e-10
-2.87074e-10
3.57087e-11
4.37745e-09
1.12508e-08
-6.60194e-08
-2.41998e-08
9.1713e-10
1.64434e-09
8.26091e-10
1.64448e-09
9.16881e-10
-2.42001e-08
-6.60189e-08
3.6874e-07
1.29532e-07
-9.53939e-09
-8.8095e-09
-3.81458e-09
-8.81034e-09
-9.53823e-09
1.29534e-07
3.68738e-07
-1.99888e-06
-6.80861e-07
6.93143e-08
4.5133e-08
1.64056e-08
4.51374e-08
6.93091e-08
-6.80869e-07
-1.99886e-06
1.06483e-05
3.53187e-06
-4.54196e-07
-2.28646e-07
-6.72716e-08
-2.28667e-07
-4.54173e-07
3.53191e-06
1.06483e-05
-5.63027e-05
-1.82014e-05
2.83411e-06
1.1456e-06
2.52383e-07
1.1457e-06
2.83402e-06
-1.82016e-05
-5.63024e-05
0.000297294
9.33235e-05
-1.73541e-05
-5.70472e-06
-8.13383e-07
-5.70517e-06
-1.73537e-05
9.33241e-05
0.000297293
-0.00157935
-0.000476921
0.000104887
2.77531e-05
1.57303e-06
2.77551e-05
0.000104886
-0.000476924
-0.00157934
0.00856375
0.0024119
-0.000632538
-0.000128299
5.05203e-06
-0.000128306
-0.000632535
0.00241191
0.00856372
-0.0498901
-0.0116851
0.00383122
0.000509639
-8.50778e-05
0.000509664
0.00383122
-0.0116851
-0.0498899
0.417342
0.0420599
-0.0228849
-0.00105648
0.000580294
-0.00105653
-0.0228849
0.0420598
0.417341
0.999123
0.593545
0.079236
-0.0082297
-0.00173529
-0.00822982
0.0792363
0.593544
0.999123
1.02528
0.876093
0.258865
-0.00125586
-0.00708314
-0.00125578
0.258866
0.876093
1.02528
1.03369
0.956156
0.362397
0.0119857
-0.0106247
0.0119861
0.362398
0.956156
1.03369
1.03592
0.969201
0.406364
0.0237788
-0.0111436
0.0237795
0.406365
0.9692
1.03592
1.03581
0.961044
0.420538
0.0328831
-0.00944399
0.0328841
0.42054
0.961042
1.03581
1.03439
0.946329
0.421955
0.040103
-0.00646505
0.0401042
0.421956
0.946328
1.03439
1.03196
0.929823
0.418242
0.0462123
-0.00276754
0.0462136
0.418244
0.929822
1.03196
1.02872
0.91271
0.412467
0.0516515
0.00122603
0.0516529
0.412469
0.912708
1.02872
1.02475
0.894947
0.405433
0.0565454
0.00535171
0.0565467
0.405435
0.894946
1.02475
1.02006
0.875778
0.39653
0.0607341
0.00954377
0.0607354
0.396532
0.875777
1.02006
1.01445
0.853045
0.383737
0.0637356
0.0137567
0.0637367
0.383738
0.853044
1.01445
1.00777
0.8228
0.362566
0.0644209
0.0179157
0.0644218
0.362567
0.822799
1.00777
0.996907
0.771524
0.323127
0.0608745
0.0219371
0.0608752
0.323128
0.771523
0.996906
0.983507
0.693826
0.244076
0.0472203
0.0252144
0.0472207
0.244077
0.693826
0.983506
0.933114
0.460658
0.0419174
0.0345113
0.026235
0.0345115
0.041918
0.460658
0.933114
0.911923
0.38316
0.383161
0.911923
0.951762
0.58312
0.44051
0.331122
0.291485
0.331123
0.440511
0.58312
0.951762
0.915068
0.845008
0.629817
0.38244
0.294408
0.38244
0.629817
0.845008
0.915068
0.665371
0.40767
0.299296
0.407671
0.665371
0.665204
0.415475
0.30271
0.415476
0.665204
0.657822
0.416447
0.304829
0.416447
0.657822
0.649112
0.414936
0.306165
0.414936
0.649112
0.640189
0.412508
0.307045
0.412508
0.640188
0.631179
0.409675
0.30761
0.409675
0.631178
0.62208
0.406606
0.307918
0.406607
0.62208
0.612844
0.403333
0.307974
0.403334
0.612844
0.603604
0.399948
0.30783
0.399949
0.603603
0.593777
0.39615
0.307327
0.396151
0.593776
0.585793
0.393152
0.307037
0.393153
0.585793
0.569986
0.386492
0.305253
0.386494
0.569986
-3.08584e-14
-2.78181e-14
-1.94966e-14
-1.56864e-14
-1.67113e-14
-1.56854e-14
-1.94964e-14
-2.7818e-14
-3.08588e-14
8.46526e-13
5.5952e-13
2.05273e-13
7.00213e-14
1.27757e-13
7.00212e-14
2.05282e-13
5.5953e-13
8.46536e-13
-1.13735e-11
-5.57278e-12
-1.02288e-12
2.39286e-13
-4.23732e-14
2.39288e-13
-1.02298e-12
-5.57293e-12
-1.13736e-11
1.02112e-10
3.77147e-11
2.08838e-13
-5.65212e-12
-4.73939e-12
-5.65223e-12
2.09484e-13
3.77162e-11
1.02113e-10
-7.46233e-10
-2.15653e-10
3.0334e-11
4.36593e-11
4.28852e-11
4.36604e-11
3.03309e-11
-2.15664e-10
-7.4624e-10
4.76807e-09
1.10154e-09
-3.107e-10
-2.66755e-10
-2.87077e-10
-2.66764e-10
-3.10689e-10
1.10161e-09
4.76811e-09
-2.80264e-08
-5.31839e-09
2.17569e-09
1.40843e-09
1.6445e-09
1.40848e-09
2.17566e-09
-5.31875e-09
-2.80267e-08
1.5535e-07
2.43737e-08
-1.32413e-08
-6.92755e-09
-8.81041e-09
-6.92782e-09
-1.32412e-08
2.43756e-08
1.55352e-07
-8.30531e-07
-1.06983e-07
7.44439e-08
3.21105e-08
4.51377e-08
3.21118e-08
7.44442e-08
-1.06992e-07
-8.30537e-07
4.33281e-06
4.3412e-07
-4.07132e-07
-1.44674e-07
-2.28668e-07
-1.44679e-07
-4.07135e-07
4.34163e-07
4.33284e-06
-2.231e-05
-1.55242e-06
2.18692e-06
6.25031e-07
1.14571e-06
6.25055e-07
2.18695e-06
-1.55262e-06
-2.23102e-05
0.000113953
3.949e-06
-1.16608e-05
-2.56768e-06
-5.70517e-06
-2.56777e-06
-1.1661e-05
3.94981e-06
0.000113954
-0.00057961
3.77187e-06
6.12471e-05
9.41764e-06
2.7755e-05
9.41795e-06
6.1248e-05
3.76869e-06
-0.000579612
0.00292893
-0.000177446
-0.000314167
-2.64454e-05
-0.000128306
-2.64463e-05
-0.000314172
-0.000177435
0.00292893
-0.0143912
0.00214668
0.0015131
5.63601e-06
0.000509661
5.63695e-06
0.00151312
0.00214665
-0.0143912
0.0558858
-0.0229982
-0.00592118
0.000652369
-0.00105652
0.000652376
-0.00592125
-0.0229982
0.0558856
0.685333
0.223762
0.00444719
-0.00468086
-0.0082298
-0.0046809
0.00444729
0.223762
0.685332
0.954121
0.506312
0.0634044
-0.00938296
-0.00125582
-0.00938304
0.0634049
0.506313
0.954121
1.03014
0.644706
0.118045
-0.00791955
0.0119859
-0.00791964
0.118046
0.644706
1.03014
1.04388
0.697256
0.153584
-0.00221178
0.0237792
-0.00221184
0.153585
0.697256
1.04388
1.03781
0.711714
0.175139
0.00533496
0.0328836
0.00533494
0.175141
0.711715
1.03781
1.02549
0.711082
0.189124
0.0134678
0.0401035
0.0134678
0.189126
0.711083
1.02549
1.01137
0.704894
0.199236
0.0216843
0.0462126
0.0216843
0.199238
0.704894
1.01137
0.996932
0.69653
0.207414
0.0297471
0.0516517
0.0297471
0.207416
0.696531
0.996931
0.982656
0.687008
0.214258
0.0375272
0.0565455
0.0375273
0.21426
0.687008
0.982654
0.968647
0.67614
0.219612
0.0448443
0.060734
0.0448444
0.219614
0.67614
0.968646
0.954674
0.662437
0.222598
0.0513494
0.0637352
0.0513495
0.222599
0.662437
0.954673
0.940332
0.643015
0.221044
0.0561489
0.0644201
0.056149
0.221046
0.643016
0.940331
0.922435
0.607185
0.209295
0.0578332
0.0608735
0.0578333
0.209297
0.607185
0.922434
0.90074
0.551774
0.174337
0.0486823
0.0472191
0.0486824
0.174338
0.551775
0.90074
0.846636
0.375367
0.0393516
0.0387599
0.0345107
0.03876
0.039352
0.375368
0.846636
0.815047
0.314858
0.31486
0.815048
0.808257
0.482307
0.321801
0.262118
0.331122
0.262118
0.321802
0.482308
0.808257
0.637051
0.563225
0.393456
0.293978
0.38244
0.293977
0.393455
0.563224
0.63705
0.393483
0.312572
0.407671
0.312571
0.393482
0.38618
0.319489
0.415476
0.319488
0.386179
0.380777
0.321813
0.416447
0.321812
0.380776
0.376927
0.32245
0.414936
0.32245
0.376926
0.373739
0.322414
0.412509
0.322414
0.373738
0.370722
0.322023
0.409676
0.322022
0.370721
0.367676
0.32138
0.406607
0.32138
0.367675
0.364506
0.320502
0.403334
0.320502
0.364506
0.361256
0.31945
0.39995
0.319451
0.361255
0.35764
0.318034
0.396152
0.318035
0.357639
0.354762
0.316982
0.393153
0.316983
0.354762
0.348503
0.313888
0.386494
0.313889
0.348503
7.27632e-15
5.0703e-15
-2.69091e-15
-1.94971e-14
-3.58239e-14
-1.94965e-14
-2.69049e-15
5.07035e-15
7.2759e-15
-9.60052e-14
-8.85597e-14
-6.11996e-14
2.05302e-13
6.87614e-13
2.05286e-13
-6.12028e-14
-8.85564e-14
-9.59993e-14
3.02151e-13
6.00353e-13
6.42723e-13
-1.02312e-12
-4.54543e-12
-1.02301e-12
6.42735e-13
6.00322e-13
3.0211e-13
-3.09821e-12
-6.52829e-12
-6.96368e-12
2.10229e-13
1.86669e-11
2.09647e-13
-6.96373e-12
-6.52803e-12
-3.09778e-12
2.81667e-11
5.56211e-11
5.33512e-11
3.03279e-11
-5.4374e-11
3.03303e-11
5.33513e-11
5.56194e-11
2.81635e-11
-2.49698e-10
-4.06863e-10
-3.43644e-10
-3.10679e-10
3.57127e-11
-3.10687e-10
-3.43644e-10
-4.06855e-10
-2.49677e-10
1.86465e-09
2.56291e-09
1.91211e-09
2.17564e-09
9.16866e-10
2.17566e-09
1.91211e-09
2.56287e-09
1.86453e-09
-1.2798e-08
-1.48911e-08
-9.79648e-09
-1.32412e-08
-9.53818e-09
-1.32412e-08
-9.79648e-09
-1.4891e-08
-1.27974e-08
8.22055e-08
8.19358e-08
4.70374e-08
7.44447e-08
6.9309e-08
7.44443e-08
4.70373e-08
8.19353e-08
8.22025e-08
-5.17761e-07
-4.43383e-07
-2.18779e-07
-4.0714e-07
-4.54174e-07
-4.07136e-07
-2.18778e-07
-4.43382e-07
-5.17747e-07
3.19312e-06
2.36945e-06
9.81054e-07
2.18698e-06
2.83402e-06
2.18695e-06
9.81052e-07
2.36945e-06
3.19306e-06
-1.94979e-05
-1.26027e-05
-4.23906e-06
-1.16611e-05
-1.73538e-05
-1.1661e-05
-4.23904e-06
-1.26027e-05
-1.94976e-05
0.00011827
6.61729e-05
1.70755e-05
6.12488e-05
0.000104886
6.12479e-05
1.70754e-05
6.61733e-05
0.000118269
-0.000720632
-0.000340624
-6.09817e-05
-0.000314175
-0.000632536
-0.000314171
-6.09814e-05
-0.000340626
-0.000720629
0.00447485
0.00166133
0.000160797
0.00151313
0.00383122
0.00151311
0.000160796
0.00166134
0.00447484
-0.0282712
-0.0067924
-4.03583e-05
-0.00592131
-0.0228849
-0.00592123
-4.03563e-05
-0.00679244
-0.0282712
0.120406
0.00938987
-0.00221418
0.00444737
0.0792362
0.00444723
-0.00221417
0.00938996
0.120406
0.342548
0.076295
0.000844811
0.0634053
0.258865
0.0634046
0.000844792
0.0762954
0.342548
0.467597
0.136399
0.00986749
0.118047
0.362398
0.118046
0.00986742
0.136399
0.467597
0.521421
0.175058
0.0216331
0.153586
0.406365
0.153584
0.021633
0.175059
0.521421
0.540155
0.198457
0.0342309
0.175141
0.420539
0.175139
0.0342308
0.198458
0.540156
0.543968
0.213775
0.0469131
0.189126
0.421955
0.189124
0.0469129
0.213776
0.543968
0.542021
0.225215
0.0594702
0.199238
0.418242
0.199235
0.0594699
0.225216
0.542021
0.538137
0.234845
0.0718302
0.207416
0.412468
0.207413
0.0718298
0.234846
0.538137
0.533986
0.243559
0.0839809
0.214259
0.405433
0.214256
0.0839805
0.24356
0.533987
0.530388
0.25178
0.095984
0.219612
0.39653
0.219609
0.0959836
0.251781
0.530388
0.527776
0.259544
0.107878
0.222597
0.383736
0.222595
0.107878
0.259544
0.527776
0.526325
0.267031
0.120077
0.221042
0.362564
0.221041
0.120076
0.267032
0.526325
0.524446
0.270214
0.130073
0.209293
0.323125
0.209292
0.130072
0.270214
0.524446
0.519842
0.275071
0.144478
0.174334
0.244074
0.174334
0.144478
0.275071
0.519842
0.498122
0.219577
0.0533099
0.03935
0.0419156
0.0393501
0.0533101
0.219577
0.498122
0.469006
0.203665
0.203666
0.469006
0.404271
0.246936
0.189974
0.321798
0.440509
0.321797
0.189974
0.246936
0.404271
0.218406
0.161779
0.148957
0.393451
0.629818
0.39345
0.148957
0.161779
0.218405
0.133135
0.393478
0.665373
0.393477
0.133135
0.128501
0.386175
0.665206
0.386174
0.1285
0.128295
0.380772
0.657823
0.380771
0.128295
0.12965
0.376922
0.649113
0.376921
0.129649
0.131465
0.373735
0.64019
0.373734
0.131464
0.133347
0.370718
0.63118
0.370717
0.133347
0.13516
0.367672
0.622081
0.367671
0.135159
0.136852
0.364503
0.612845
0.364501
0.136851
0.138416
0.361252
0.603605
0.361251
0.138415
0.139826
0.357636
0.593778
0.357635
0.139825
0.141077
0.354759
0.585795
0.354758
0.141077
0.142645
0.3485
0.569988
0.348499
0.142644
1.87689e-14
1.74004e-14
5.06926e-15
-2.78202e-14
-6.7938e-14
-2.78183e-14
5.07025e-15
1.74004e-14
1.87687e-14
-1.35876e-13
-1.41002e-13
-8.85465e-14
5.5957e-13
1.77955e-12
5.59538e-13
-8.85554e-14
-1.41001e-13
-1.35875e-13
7.6235e-13
8.59844e-13
6.00247e-13
-5.57333e-12
-1.71495e-11
-5.57301e-12
6.00313e-13
8.59839e-13
7.62348e-13
-7.88781e-12
-7.52956e-12
-6.52749e-12
3.77191e-11
1.21167e-10
3.77167e-11
-6.52797e-12
-7.5295e-12
-7.88779e-12
6.03572e-11
5.22635e-11
5.56165e-11
-2.15682e-10
-7.57052e-10
-2.15666e-10
5.56191e-11
5.2263e-11
6.03571e-11
-4.04507e-10
-3.21439e-10
-4.06841e-10
1.10171e-09
4.37745e-09
1.10162e-09
-4.06854e-10
-3.21436e-10
-4.04508e-10
2.40217e-09
1.74508e-09
2.56282e-09
-5.31929e-09
-2.42001e-08
-5.3188e-09
2.56286e-09
1.74506e-09
2.40218e-09
-1.3336e-08
-8.78914e-09
-1.48908e-08
2.43783e-08
1.29534e-07
2.43758e-08
-1.4891e-08
-8.78904e-09
-1.33361e-08
7.06334e-08
4.16525e-08
8.19349e-08
-1.07005e-07
-6.80869e-07
-1.06992e-07
8.19353e-08
4.1652e-08
7.06339e-08
-3.67936e-07
-1.9145e-07
-4.43382e-07
4.34225e-07
3.5319e-06
4.34165e-07
-4.43382e-07
-1.91447e-07
-3.67939e-07
1.89005e-06
8.46367e-07
2.36946e-06
-1.55291e-06
-1.82016e-05
-1.55262e-06
2.36945e-06
8.46355e-07
1.89007e-06
-9.63478e-06
-3.59192e-06
-1.26028e-05
3.95097e-06
9.3324e-05
3.94974e-06
-1.26027e-05
-3.59186e-06
-9.63487e-06
4.79144e-05
1.38918e-05
6.61739e-05
3.76424e-06
-0.000476923
3.76926e-06
6.61732e-05
1.38916e-05
4.79148e-05
-0.000227756
-4.46187e-05
-0.000340629
-0.00017742
0.00241191
-0.000177439
-0.000340625
-4.4618e-05
-0.000227757
0.000954694
7.03072e-05
0.00166136
0.0021466
-0.0116851
0.00214666
0.00166134
7.03056e-05
0.000954699
-0.00250239
0.000484779
-0.00679251
-0.0229982
0.0420596
-0.0229982
-0.00679242
0.000484778
-0.0025024
-0.00975369
-0.00463712
0.00939011
0.223763
0.593544
0.223762
0.0093899
-0.00463709
-0.0097537
0.00861563
-0.00763074
0.076296
0.506314
0.876093
0.506312
0.0762951
-0.00763071
0.00861567
0.0342656
-0.00379145
0.1364
0.644707
0.956156
0.644705
0.136399
-0.00379145
0.0342657
0.0546103
0.0042656
0.17506
0.697257
0.9692
0.697255
0.175058
0.00426554
0.0546105
0.0687504
0.0139624
0.198459
0.711716
0.961043
0.711713
0.198456
0.0139623
0.0687507
0.0789186
0.024085
0.213777
0.711084
0.946328
0.711081
0.213774
0.0240848
0.0789189
0.0870112
0.0342059
0.225217
0.704896
0.929822
0.704892
0.225214
0.0342056
0.0870115
0.094149
0.0442257
0.234846
0.696531
0.912709
0.696528
0.234843
0.0442254
0.0941493
0.100965
0.0541836
0.24356
0.687008
0.894946
0.687005
0.243557
0.0541833
0.100965
0.107886
0.064231
0.25178
0.676139
0.875778
0.676136
0.251777
0.0642306
0.107887
0.115291
0.0746182
0.259543
0.662435
0.853045
0.662433
0.25954
0.0746178
0.115291
0.123532
0.0860081
0.26703
0.643013
0.822799
0.643011
0.267027
0.0860076
0.123532
0.132613
0.0984605
0.270211
0.607182
0.771523
0.607179
0.270209
0.09846
0.132614
0.141514
0.115054
0.275068
0.55177
0.693826
0.551769
0.275066
0.115053
0.141514
0.146149
0.126447
0.219574
0.375363
0.460657
0.375363
0.219573
0.126447
0.146149
0.138103
0.132903
0.203663
0.314855
0.383159
0.314854
0.203662
0.132903
0.138103
0.102417
0.10892
0.246932
0.482303
0.58312
0.482303
0.246931
0.10892
0.102417
0.0392424
0.0319071
0.161775
0.563219
0.845011
0.563218
0.161775
0.031907
0.0392425
1.78209e-14
1.87689e-14
7.27514e-15
-3.08606e-14
-9.48845e-14
-3.08592e-14
7.27579e-15
1.87687e-14
1.78207e-14
-8.22374e-14
-1.35876e-13
-9.59846e-14
8.4659e-13
2.79435e-12
8.46546e-13
-9.5998e-14
-1.35875e-13
-8.22357e-14
3.08578e-13
7.62358e-13
3.01987e-13
-1.13742e-11
-3.12766e-11
-1.13738e-11
3.02098e-13
7.62348e-13
3.08572e-13
-3.25543e-12
-7.88791e-12
-3.0965e-12
1.02118e-10
2.55405e-10
1.02113e-10
-3.09766e-12
-7.88779e-12
-3.25537e-12
2.2364e-11
6.03582e-11
2.81539e-11
-7.46277e-10
-1.78661e-09
-7.46246e-10
2.81627e-11
6.03571e-11
2.23636e-11
-1.33175e-10
-4.04517e-10
-2.49617e-10
4.76833e-09
1.12508e-08
4.76814e-09
-2.49673e-10
-4.04508e-10
-1.33172e-10
6.81644e-10
2.40224e-09
1.8642e-09
-2.80279e-08
-6.60189e-08