/*--------------------------------*- C++ -*----------------------------------*\
  =========                 |
  \\      /  F ield         | OpenFOAM: The Open Source CFD Toolbox
   \\    /   O peration     | Website:  https://openfoam.org
    \\  /    A nd           | Version:  6
     \\/     M anipulation  |
\*---------------------------------------------------------------------------*/
FoamFile
{
    version     2.0;
    format      ascii;
    class       volScalarField;
    location    "0.0002";
    object      T;
}
// * * * * * * * * * * * * * * * * * * * * * * * * * * * * * * * * * * * * * //

dimensions      [0 0 0 1 0 0 0];

internalField   nonuniform List<scalar> 
1024
(
275.671
275.671
275.671
275.671
275.671
275.671
275.671
275.671
250.055
250.055
250.055
250.055
250.055
250.055
250.055
250.055
194.386
194.386
194.386
194.385
194.385
194.385
194.385
194.385
139.212
139.212
139.212
139.212
139.212
139.212
139.212
139.212
97.0682
97.0682
97.0681
97.068
97.0677
97.0675
97.0674
97.0674
66.3648
66.3648
66.3647
66.3646
66.3645
66.3643
66.3642
66.3641
44.5424
44.5424
44.5424
44.5423
44.5423
44.5423
44.5422
44.5421
29.5048
29.5049
29.5048
29.5048
29.5048
29.5048
29.5048
29.5048
19.3898
19.3899
19.3899
19.3898
19.3897
19.3897
19.3897
19.3897
12.7171
12.7172
12.7171
12.7171
12.717
12.7169
12.7169
12.7169
8.38539
8.38537
8.38536
8.38532
8.38524
8.38517
8.38511
8.38507
5.61112
5.61107
5.61106
5.61107
5.61104
5.611
5.61096
5.61094
3.85484
3.85476
3.85477
3.85481
3.85485
3.85487
3.85488
3.85489
2.75427
2.75419
2.75421
2.75428
2.75437
2.75446
2.75453
2.75459
2.07184
2.07177
2.07179
2.07188
2.07201
2.07214
2.07227
2.07236
1.66256
1.66251
1.66254
1.66264
1.66278
1.66294
1.66309
1.66321
275.671
275.671
275.671
275.671
275.671
275.671
275.671
275.671
250.055
250.055
250.055
250.055
250.055
250.055
250.055
250.055
194.386
194.386
194.386
194.385
194.385
194.385
194.385
194.385
139.212
139.212
139.212
139.212
139.212
139.212
139.212
139.212
97.0682
97.0682
97.0681
97.068
97.0678
97.0675
97.0674
97.0674
66.3648
66.3648
66.3647
66.3646
66.3645
66.3643
66.3642
66.3641
44.5424
44.5424
44.5424
44.5423
44.5423
44.5423
44.5422
44.5421
29.5049
29.5049
29.5049
29.5048
29.5048
29.5048
29.5048
29.5048
19.3899
19.39
19.3899
19.3898
19.3898
19.3897
19.3897
19.3897
12.7172
12.7172
12.7172
12.7171
12.717
12.7169
12.7169
12.7169
8.38538
8.38537
8.38536
8.38533
8.38526
8.38518
8.38512
8.38508
5.61107
5.61102
5.61103
5.61105
5.61103
5.611
5.61097
5.61095
3.85476
3.8547
3.85471
3.85477
3.85483
3.85486
3.85489
3.8549
2.75419
2.75412
2.75415
2.75424
2.75435
2.75445
2.75454
2.7546
2.07177
2.0717
2.07174
2.07184
2.07198
2.07213
2.07227
2.07237
1.66251
1.66248
1.66251
1.66262
1.66277
1.66294
1.6631
1.66322
275.671
275.671
275.671
275.671
275.671
275.671
275.671
275.671
250.055
250.055
250.055
250.055
250.055
250.055
250.055
250.055
194.386
194.386
194.386
194.385
194.385
194.385
194.385
194.385
139.212
139.212
139.212
139.212
139.212
139.212
139.212
139.212
97.0682
97.0682
97.0681
97.068
97.0677
97.0675
97.0674
97.0674
66.3648
66.3648
66.3647
66.3646
66.3645
66.3643
66.3642
66.3641
44.5425
44.5424
44.5424
44.5423
44.5423
44.5423
44.5422
44.5421
29.5049
29.5049
29.5049
29.5048
29.5048
29.5048
29.5048
29.5048
19.3899
19.39
19.3899
19.3899
19.3898
19.3897
19.3897
19.3897
12.7172
12.7172
12.7172
12.7171
12.717
12.7169
12.7169
12.7168
8.38538
8.38537
8.38537
8.38535
8.38528
8.3852
8.38513
8.38507
5.61107
5.61104
5.61105
5.61108
5.61107
5.61104
5.611
5.61096
3.85477
3.85472
3.85475
3.85481
3.85487
3.85491
3.85493
3.85493
2.75421
2.75415
2.75419
2.75429
2.7544
2.75451
2.75458
2.75463
2.07179
2.07174
2.07178
2.07189
2.07204
2.07219
2.07232
2.07241
1.66255
1.66252
1.66256
1.66267
1.66283
1.663
1.66315
1.66326
275.671
275.671
275.671
275.671
275.671
275.671
275.671
275.671
250.055
250.055
250.055
250.055
250.055
250.055
250.055
250.055
194.386
194.386
194.386
194.385
194.385
194.385
194.385
194.385
139.212
139.212
139.212
139.212
139.212
139.212
139.212
139.212
97.0682
97.0682
97.0681
97.068
97.0678
97.0675
97.0674
97.0674
66.3649
66.3648
66.3647
66.3646
66.3645
66.3643
66.3642
66.3641
44.5425
44.5424
44.5424
44.5423
44.5423
44.5422
44.5422
44.5421
29.5049
29.5049
29.5049
29.5048
29.5047
29.5048
29.5047
29.5048
19.3899
19.3899
19.3899
19.3898
19.3897
19.3897
19.3897
19.3897
12.7171
12.7171
12.7171
12.7171
12.717
12.7169
12.7168
12.7168
8.38535
8.38535
8.38536
8.38534
8.38527
8.38517
8.38508
8.38502
5.61108
5.61106
5.61109
5.61111
5.6111
5.61105
5.61098
5.61091
3.85482
3.85478
3.85482
3.85489
3.85495
3.85496
3.85494
3.85491
2.75429
2.75424
2.75429
2.75439
2.7545
2.75459
2.75463
2.75463
2.07189
2.07185
2.07189
2.07201
2.07215
2.07229
2.07238
2.07243
1.66264
1.66262
1.66267
1.66279
1.66294
1.6631
1.66322
1.66329
275.671
275.671
275.671
275.671
275.671
275.671
275.671
275.671
250.055
250.055
250.055
250.055
250.055
250.055
250.055
250.055
194.386
194.386
194.386
194.385
194.385
194.385
194.385
194.385
139.212
139.212
139.212
139.212
139.212
139.212
139.212
139.212
97.0682
97.0682
97.0681
97.068
97.0678
97.0676
97.0674
97.0674
66.3649
66.3648
66.3648
66.3646
66.3645
66.3644
66.3642
66.3642
44.5425
44.5425
44.5424
44.5423
44.5423
44.5423
44.5423
44.5422
29.5049
29.5049
29.5049
29.5048
29.5047
29.5048
29.5048
29.5049
19.3898
19.3898
19.3898
19.3897
19.3896
19.3896
19.3896
19.3898
12.717
12.7171
12.7171
12.717
12.7169
12.7168
12.7168
12.7169
8.38528
8.38529
8.38531
8.38528
8.38519
8.38507
8.38499
8.38505
5.61107
5.61106
5.61109
5.61111
5.61108
5.61099
5.6109
5.61093
3.85486
3.85484
3.85488
3.85495
3.85498
3.85496
3.8549
3.85492
2.75438
2.75436
2.75441
2.7545
2.75459
2.75463
2.75462
2.75466
2.07202
2.07199
2.07204
2.07216
2.07228
2.07237
2.07241
2.07246
1.66279
1.66278
1.66283
1.66294
1.66308
1.66319
1.66326
1.66333
275.671
275.671
275.671
275.671
275.671
275.671
275.671
275.671
250.055
250.055
250.055
250.055
250.055
250.055
250.055
250.055
194.386
194.386
194.386
194.385
194.385
194.385
194.385
194.385
139.212
139.212
139.212
139.212
139.212
139.212
139.212
139.211
97.0682
97.0682
97.0681
97.0679
97.0677
97.0675
97.0674
97.0673
66.3648
66.3648
66.3647
66.3646
66.3645
66.3643
66.3642
66.364
44.5426
44.5425
44.5425
44.5424
44.5424
44.5424
44.5423
44.542
29.505
29.5049
29.5049
29.5048
29.5048
29.5049
29.5049
29.5047
19.3898
19.3898
19.3898
19.3897
19.3896
19.3897
19.3898
19.3897
12.717
12.717
12.717
12.7169
12.7168
12.7168
12.7169
12.7168
8.38521
8.38522
8.38524
8.38519
8.38508
8.38499
8.38507
8.38501
5.61103
5.61103
5.61106
5.61107
5.611
5.6109
5.61095
5.6109
3.85489
3.85488
3.85493
3.85497
3.85496
3.8549
3.85493
3.85491
2.75447
2.75446
2.75451
2.75459
2.75463
2.75462
2.75466
2.75466
2.07215
2.07214
2.0722
2.07229
2.07237
2.0724
2.07246
2.07248
1.66294
1.66295
1.663
1.6631
1.66319
1.66325
1.66332
1.66335
275.671
275.671
275.671
275.671
275.671
275.671
275.671
275.671
250.055
250.055
250.055
250.055
250.055
250.055
250.055
250.055
194.386
194.386
194.386
194.385
194.385
194.385
194.385
194.385
139.212
139.212
139.212
139.212
139.212
139.212
139.212
139.212
97.0682
97.0681
97.0681
97.0679
97.0677
97.0675
97.0674
97.0675
66.3648
66.3647
66.3647
66.3646
66.3645
66.3642
66.364
66.3642
44.5425
44.5425
44.5425
44.5424
44.5424
44.5424
44.5421
44.5422
29.505
29.505
29.5049
29.5048
29.5049
29.505
29.5047
29.5048
19.3898
19.3898
19.3898
19.3897
19.3897
19.3898
19.3896
19.3897
12.7169
12.717
12.7169
12.7169
12.7168
12.7169
12.7168
12.7168
8.38516
8.38516
8.38517
8.3851
8.38501
8.38508
8.385
8.38503
5.61099
5.611
5.61102
5.61099
5.61091
5.61095
5.6109
5.61091
3.8549
3.85491
3.85494
3.85495
3.8549
3.85493
3.8549
3.85492
2.75455
2.75455
2.75459
2.75463
2.75463
2.75466
2.75465
2.75467
2.07227
2.07228
2.07233
2.07239
2.07241
2.07246
2.07247
2.07249
1.66309
1.6631
1.66315
1.66322
1.66327
1.66332
1.66335
1.66337
275.671
275.671
275.671
275.671
275.671
275.671
275.671
275.671
250.055
250.055
250.055
250.055
250.055
250.055
250.055
250.055
194.386
194.386
194.386
194.385
194.385
194.385
194.385
194.385
139.212
139.212
139.212
139.212
139.212
139.212
139.212
139.211
97.0682
97.0681
97.068
97.0679
97.0677
97.0675
97.0676
97.0674
66.3647
66.3647
66.3646
66.3645
66.3644
66.3641
66.3642
66.3641
44.5425
44.5425
44.5424
44.5424
44.5424
44.5422
44.5422
44.5421
29.505
29.505
29.5049
29.5049
29.5049
29.5048
29.5048
29.5048
19.3898
19.3898
19.3898
19.3897
19.3898
19.3897
19.3897
19.3897
12.7169
12.7169
12.7169
12.7168
12.7169
12.7168
12.7168
12.7168
8.38512
8.38512
8.38511
8.38504
8.38506
8.38501
8.38503
8.38502
5.61097
5.61097
5.61098
5.61093
5.61094
5.61091
5.61091
5.61091
3.85491
3.85492
3.85494
3.85491
3.85493
3.85491
3.85492
3.85491
2.7546
2.75461
2.75464
2.75464
2.75466
2.75466
2.75467
2.75467
2.07237
2.07238
2.07242
2.07244
2.07246
2.07248
2.0725
2.0725
1.66321
1.66323
1.66326
1.66329
1.66333
1.66335
1.66337
1.66338
)
;

boundaryField
{
    inlet
    {
        type            fixedValue;
        value           uniform 273;
    }
    outlet
    {
        type            zeroGradient;
    }
    walls
    {
        type            zeroGradient;
    }
}


// ************************************************************************* //
