/*--------------------------------*- C++ -*----------------------------------*\
  =========                 |
  \\      /  F ield         | OpenFOAM: Addition to OpenFOAM v6
   \\    /   O peration     | Website:  https://github.com/StasF1/dualFuelEngine
    \\  /    A nd           | Version:  0.2-alpha
     \\/     M anipulation  |
\*---------------------------------------------------------------------------*/
FoamFile
{
    version     2.0;
    format      ascii;
    class       volVectorField;
    location    "0";
    object      U;
}
// * * * * * * * * * * * * * * * * * * * * * * * * * * * * * * * * * * * * * //

dimensions      [0 1 -1 0 0 0 0];

internalField   nonuniform List<vector> 
20
(
(0 1 0)
(0 2 0)
(0 3 0)
(0 4 0)
(0 5 0)
(0 6 0)
(0 7 0)
(0 8 0)
(0 9 0)
(0 10 0)
(0 11 0)
(0 12 0)
(0 13 0)
(0 14 0)
(0 15 0)
(0 16 0)
(0 17 0)
(0 18 0)
(0 19 0)
(0 20 0)
)
;

boundaryField
{
    inlet
    {
        type            fixedValue;
        value           uniform (0 1 0);
    }
    outlet
    {
        type            zeroGradient;
    }
    walls
    {
        type            noSlip;
    }
}


// ************************************************************************* //
