/*--------------------------------*- C++ -*----------------------------------*\
  =========                 |
  \\      /  F ield         | OpenFOAM: The Open Source CFD Toolbox
   \\    /   O peration     | Website:  https://openfoam.org
    \\  /    A nd           | Version:  6
     \\/     M anipulation  |
\*---------------------------------------------------------------------------*/
FoamFile
{
    version     2.0;
    format      ascii;
    class       volScalarField;
    location    "0.2";
    object      alpha_air;
}
// * * * * * * * * * * * * * * * * * * * * * * * * * * * * * * * * * * * * * //

dimensions      [0 0 0 0 0 0 0];

internalField   nonuniform List<scalar> 
3029
(
0.998908
0.998492
1.00043
0.983785
0.799368
0.983785
1.00043
0.998492
0.998909
0.99857
0.998009
0.999495
0.981516
0.786866
0.981515
0.999494
0.998008
0.99857
0.996772
0.995349
1.0004
0.957613
0.73528
0.957612
1.00039
0.995347
0.996772
0.988215
0.982989
0.982489
0.89557
0.653043
0.89557
0.982486
0.982986
0.988215
0.952856
0.938448
0.918257
0.789922
0.551962
0.789923
0.918254
0.938444
0.952855
0.87239
0.847301
0.804046
0.655528
0.445597
0.65553
0.804043
0.847295
0.872388
0.750244
0.718443
0.660319
0.51512
0.345311
0.515122
0.660317
0.718437
0.750242
0.607507
0.574835
0.513289
0.386857
0.258274
0.386859
0.513287
0.574829
0.607505
0.467008
0.437835
0.381437
0.279934
0.187326
0.279937
0.381435
0.43783
0.467005
0.343801
0.320146
0.273142
0.196337
0.132214
0.196339
0.273141
0.320142
0.343799
0.24415
0.226232
0.189541
0.133977
0.0910142
0.133979
0.18954
0.226229
0.244148
0.168215
0.155273
0.127912
0.0891041
0.061163
0.0891054
0.127911
0.155271
0.168213
0.113002
0.103914
0.0840866
0.0576829
0.0400432
0.057684
0.0840863
0.103912
0.113001
0.0744242
0.0680651
0.0538001
0.0360587
0.0252759
0.0360594
0.0538
0.0680639
0.0744234
0.0484333
0.0438527
0.0333459
0.0212407
0.0147494
0.0212413
0.033346
0.0438519
0.0484326
0.031509
0.0280061
0.0196949
0.0100708
0.00455456
0.0100711
0.019695
0.0280056
0.0315085
0.0207639
0.0177891
0.0102531
0.0027422
0.00116333
0.00274231
0.0102532
0.0177889
0.0207635
0.013939
0.0113296
0.00491022
0.000122901
-6.66348e-05
0.000122919
0.00491027
0.0113294
0.0139387
0.00953085
0.00744894
0.00262817
-0.000356208
-0.000162859
-0.000356222
0.00262823
0.0074488
0.00953064
0.00659797
0.0050566
0.00160015
-0.000381022
-0.000178206
-0.000381056
0.00160009
0.00505642
0.00659776
0.00458305
0.00348424
0.00103261
-0.000334093
-0.00016768
-0.000334136
0.00103251
0.00348406
0.00458284
0.00317107
0.00240402
0.000673347
-0.000281781
-0.000153254
-0.000281823
0.00067324
0.00240387
0.00317086
0.00217448
0.00164678
0.000431225
-0.000235645
-0.000136582
-0.000235682
0.000431133
0.00164666
0.00217428
0.00147234
0.00111395
0.000265774
-0.000196338
-0.000119399
-0.000196369
0.000265701
0.00111386
0.00147214
0.000981304
0.000740929
0.00015356
-0.000163037
-0.000102737
-0.00016306
0.000153507
0.000740864
0.000981116
0.000641708
0.000482417
7.89502e-05
-0.000134867
-8.72454e-05
-0.000134882
7.89156e-05
0.00048237
0.00064153
0.000410147
0.00030575
3.08978e-05
-0.000111043
-7.3257e-05
-0.000111051
3.08793e-05
0.000305716
0.000409981
0.000254853
0.000187176
1.52882e-06
-9.08541e-05
-6.08622e-05
-9.08555e-05
1.52456e-06
0.000187153
0.000254696
0.000152456
0.000109394
-1.46816e-05
-7.3589e-05
-4.9929e-05
-7.3582e-05
-1.4672e-05
0.000109378
0.000152308
8.57203e-05
5.96826e-05
-2.15873e-05
-5.85363e-05
-4.00857e-05
-5.85176e-05
-2.15614e-05
5.96736e-05
8.55787e-05
4.22529e-05
2.88923e-05
-2.31249e-05
-4.58799e-05
-3.14267e-05
-4.58461e-05
-2.30797e-05
2.88858e-05
4.21163e-05
1.3457e-05
9.86703e-06
-2.30223e-05
-3.97918e-05
-2.8065e-05
-3.97502e-05
-2.29713e-05
9.85683e-06
1.33328e-05
-7.89572e-06
-4.80431e-06
-2.10705e-05
-3.49345e-05
-2.69671e-05
-3.48808e-05
-2.10225e-05
-4.82341e-06
-8.00591e-06
-2.42927e-05
-1.97905e-05
-2.18953e-05
-2.78343e-05
-2.35455e-05
-2.77598e-05
-2.18509e-05
-1.9814e-05
-2.43765e-05
0.998492
0.99023
0.989313
0.916156
0.683368
0.916155
0.989311
0.990229
0.998492
0.998009
0.989491
0.988159
0.905379
0.663834
0.905378
0.988157
0.989489
0.998008
0.995349
0.982245
0.969887
0.858454
0.609348
0.858453
0.969884
0.982242
0.995347
0.982989
0.958004
0.919785
0.772367
0.52951
0.772367
0.919782
0.957999
0.982986
0.938448
0.896161
0.826675
0.656033
0.437741
0.656033
0.826672
0.896155
0.938443
0.8473
0.79149
0.700036
0.527986
0.346561
0.527987
0.700033
0.791483
0.847294
0.718443
0.658378
0.560695
0.405698
0.264466
0.4057
0.560692
0.658371
0.718435
0.574834
0.519026
0.428289
0.300034
0.195618
0.300036
0.428286
0.519019
0.574827
0.437835
0.391119
0.314586
0.21498
0.140846
0.214982
0.314584
0.391113
0.437828
0.320146
0.283916
0.223679
0.149962
0.0990161
0.149964
0.223678
0.283911
0.32014
0.226232
0.199718
0.154695
0.102168
0.0681071
0.102169
0.154695
0.199715
0.226228
0.155273
0.13673
0.104396
0.068117
0.0459055
0.0681182
0.104396
0.136728
0.15527
0.103914
0.091401
0.068889
0.044477
0.0303419
0.044478
0.0688887
0.0913992
0.103911
0.068065
0.0598553
0.0445153
0.0284162
0.019661
0.0284169
0.0445152
0.0598541
0.0680634
0.0438526
0.0385914
0.028228
0.0177214
0.0125173
0.0177219
0.0282281
0.0385906
0.0438515
0.028006
0.0247322
0.0176551
0.0105355
0.00701571
0.0105359
0.0176551
0.0247317
0.0280053
0.0177891
0.0159711
0.0108187
0.00521262
0.00274454
0.0052128
0.0108188
0.0159708
0.0177886
0.0113296
0.0105057
0.00655711
0.00217058
0.000673909
0.00217066
0.00655718
0.0105055
0.0113293
0.00744891
0.00709785
0.00415921
0.00100092
0.000204663
0.00100095
0.00415925
0.00709767
0.00744869
0.00505658
0.00489793
0.0027682
0.000539653
7.72411e-05
0.000539667
0.00276822
0.00489779
0.00505639
0.00348423
0.00340834
0.00188259
0.000310063
2.62531e-05
0.000310077
0.00188262
0.00340821
0.00348406
0.00240401
0.00236889
0.00128367
0.000175542
-1.78931e-06
0.000175561
0.00128372
0.0023688
0.00240385
0.00164678
0.00163451
0.000867978
9.07384e-05
-1.86508e-05
9.0767e-05
0.000868056
0.00163444
0.00164663
0.00111395
0.00111518
0.000577963
3.7076e-05
-2.8114e-05
3.71135e-05
0.000578059
0.00111514
0.00111382
0.000740929
0.000749862
0.000376702
4.14217e-06
-3.2357e-05
4.18772e-06
0.000376811
0.000749843
0.000740807
0.000482417
0.000495145
0.000238509
-1.47214e-05
-3.29295e-05
-1.46691e-05
0.000238625
0.000495142
0.000482305
0.00030575
0.000319569
0.000145023
-2.39754e-05
-3.08789e-05
-2.39172e-05
0.000145143
0.000319578
0.000305647
0.000187176
0.000200281
8.31257e-05
-2.6564e-05
-2.68538e-05
-2.64996e-05
8.32482e-05
0.0002003
0.000187081
0.000109394
0.000120782
4.3595e-05
-2.43154e-05
-2.11812e-05
-2.42426e-05
4.37218e-05
0.000120811
0.000109305
5.96832e-05
6.92027e-05
1.99852e-05
-1.86291e-05
-1.42716e-05
-1.85441e-05
2.01215e-05
6.92451e-05
5.9598e-05
2.88927e-05
3.63816e-05
2.92176e-06
-1.36635e-05
-8.68555e-06
-1.35667e-05
3.06647e-06
3.64372e-05
2.88065e-05
9.86738e-06
1.75816e-05
-4.08419e-06
-1.49349e-05
-9.44414e-06
-1.48084e-05
-3.91196e-06
1.76145e-05
9.77736e-06
-4.80411e-06
3.44902e-06
-7.99492e-06
-2.09957e-05
-1.63093e-05
-2.08646e-05
-7.86323e-06
3.45678e-06
-4.89413e-06
-1.97904e-05
-1.4856e-05
-1.70932e-05
-2.4681e-05
-2.14819e-05
-2.4528e-05
-1.69889e-05
-1.48652e-05
-1.98685e-05
1.00043
0.989313
0.92461
0.720862
0.459075
0.720863
0.924608
0.989311
1.00043
0.999495
0.988159
0.913634
0.696074
0.436581
0.696075
0.913631
0.988156
0.999494
1.0004
0.969886
0.865066
0.631391
0.388935
0.631392
0.865064
0.969882
1.00039
0.982488
0.919784
0.777267
0.538849
0.327002
0.53885
0.777266
0.919779
0.982484
0.918256
0.826674
0.66022
0.435615
0.262028
0.435616
0.66022
0.826669
0.91825
0.804045
0.700034
0.531995
0.336533
0.201955
0.336534
0.531995
0.700029
0.804038
0.660318
0.560693
0.409365
0.250473
0.150795
0.250474
0.409365
0.560688
0.660311
0.513288
0.428287
0.303084
0.180817
0.10966
0.180818
0.303084
0.428283
0.513281
0.381435
0.314585
0.217351
0.127263
0.0779576
0.127264
0.217351
0.314582
0.38143
0.273141
0.223678
0.151762
0.0876515
0.0543197
0.0876525
0.151762
0.223676
0.273137
0.18954
0.154695
0.103558
0.0592327
0.0371706
0.0592335
0.103558
0.154693
0.189536
0.127911
0.104396
0.0692447
0.039357
0.0250264
0.0393576
0.069245
0.104395
0.127909
0.084086
0.0688886
0.0454748
0.0257734
0.0166261
0.0257739
0.0454751
0.0688878
0.0840844
0.0537997
0.0445151
0.029423
0.0167054
0.0109635
0.0167057
0.0294233
0.0445146
0.0537986
0.0333457
0.0282279
0.0188769
0.010819
0.00729633
0.0108192
0.0188771
0.0282276
0.033345
0.0196948
0.0176549
0.0121758
0.00714789
0.00509514
0.00714805
0.0121759
0.0176548
0.0196944
0.010253
0.0108186
0.00803292
0.00479419
0.0034305
0.00479431
0.00803301
0.0108186
0.0102528
0.00491017
0.00655706
0.00541672
0.00312209
0.00202237
0.00312217
0.00541679
0.00655708
0.00491004
0.00262815
0.00415918
0.00372226
0.00206208
0.00126117
0.00206213
0.0037223
0.00415913
0.00262802
0.00160014
0.00276818
0.00258781
0.00139635
0.000839219
0.00139642
0.00258789
0.00276822
0.00159997
0.0010326
0.00188258
0.00180092
0.00095487
0.000574235
0.000954952
0.00180103
0.00188265
0.00103243
0.000673341
0.00128366
0.00124583
0.000651394
0.000394599
0.000651495
0.00124597
0.00128375
0.000673187
0.000431223
0.000867976
0.000852866
0.000439924
0.000269078
0.00044004
0.000853015
0.000868063
0.000431087
0.000265773
0.000577962
0.000575794
0.000292302
0.000180711
0.000292428
0.000575952
0.000578046
0.000265654
0.000153561
0.000376702
0.000381809
0.000189847
0.00011875
0.000189978
0.000381969
0.00037678
0.000153458
7.89511e-05
0.00023851
0.000247129
0.000119452
7.57964e-05
0.000119583
0.000247286
0.000238581
7.88628e-05
3.08989e-05
0.000145024
0.000154436
7.16632e-05
4.64854e-05
7.17896e-05
0.000154586
0.00014509
3.08227e-05
1.52994e-06
8.31269e-05
9.11086e-05
3.96553e-05
2.68829e-05
3.97752e-05
9.12514e-05
8.31877e-05
1.4638e-06
-1.46806e-05
4.35961e-05
4.78059e-05
1.84446e-05
1.40258e-05
1.85559e-05
4.79407e-05
4.36557e-05
-1.47386e-05
-2.15864e-05
1.99861e-05
1.68627e-05
3.96592e-06
5.25473e-06
4.06474e-06
1.69881e-05
2.00513e-05
-2.16382e-05
-2.31242e-05
2.92224e-06
-1.17295e-05
-8.71644e-06
-3.19905e-06
-8.64018e-06
-1.16293e-05
2.99379e-06
-2.31744e-05
-2.30217e-05
-4.08381e-06
-4.06237e-06
-2.30899e-05
-2.107e-05
-7.99458e-06
-3.56468e-06
-1.26608e-05
-1.3174e-05
-1.25017e-05
-3.45144e-06
-7.98336e-06
-2.11411e-05
-2.18951e-05
-1.7093e-05
-1.00654e-05
-1.60311e-05
-1.6506e-05
-1.57994e-05
-9.91724e-06
-1.70966e-05
-2.19631e-05
-1.20624e-05
-1.60243e-05
-1.63239e-05
-1.57187e-05
-1.18209e-05
-1.23418e-05
-1.53248e-05
-1.52933e-05
-1.49862e-05
-1.21163e-05
-1.24929e-05
-1.47157e-05
-1.43207e-05
-1.43755e-05
-1.22718e-05
-1.25004e-05
-1.41049e-05
-1.34029e-05
-1.37723e-05
-1.22888e-05
-1.23956e-05
-1.34854e-05
-1.25399e-05
-1.31648e-05
-1.21933e-05
-1.2194e-05
-1.28576e-05
-1.17264e-05
-1.25504e-05
-1.20012e-05
-1.19138e-05
-1.2227e-05
-1.09595e-05
-1.1934e-05
-1.17306e-05
-1.15715e-05
-1.15991e-05
-1.02368e-05
-1.13206e-05
-1.13979e-05
-1.11824e-05
-1.09795e-05
-9.55665e-06
-1.07156e-05
-1.10182e-05
-1.07548e-05
-1.03691e-05
-8.9146e-06
-1.01196e-05
-1.05998e-05
-1.03565e-05
-9.81665e-06
-8.33981e-06
-9.58076e-06
-1.02101e-05
-1.00584e-05
-9.29458e-06
-7.75374e-06
-9.07118e-06
-9.92041e-06
0.983784
0.916154
0.720861
0.413466
0.200864
0.413469
0.720861
0.916152
0.983784
0.981514
0.905377
0.696073
0.388655
0.187419
0.388657
0.696073
0.905374
0.981513
0.957611
0.858451
0.63139
0.339113
0.163036
0.339115
0.631391
0.858447
0.957608
0.895567
0.772364
0.538847
0.278023
0.134156
0.278024
0.538849
0.77236
0.895563
0.789918
0.656029
0.435614
0.217101
0.105801
0.217101
0.435616
0.656026
0.789913
0.655524
0.527983
0.336532
0.16327
0.0807547
0.163271
0.336535
0.52798
0.655519
0.515116
0.405695
0.250472
0.119194
0.0600381
0.119195
0.250474
0.405694
0.515111
0.386853
0.300032
0.180816
0.0849418
0.043658
0.0849426
0.180819
0.300031
0.386849
0.279931
0.214978
0.127262
0.0593147
0.0311336
0.0593154
0.127265
0.214978
0.279928
0.196335
0.14996
0.0876511
0.0406905
0.0218116
0.040691
0.0876535
0.149961
0.196332
0.133976
0.102167
0.0592324
0.0274735
0.0150322
0.0274738
0.0592344
0.102167
0.133974
0.0891029
0.0681162
0.0393568
0.0182882
0.0102061
0.0182883
0.0393583
0.0681168
0.0891016
0.0576821
0.0444765
0.0257733
0.0120329
0.00684298
0.0120329
0.0257745
0.0444771
0.0576813
0.0360582
0.0284159
0.0167053
0.00786576
0.00455417
0.00786568
0.0167061
0.0284164
0.0360576
0.0212404
0.0177212
0.0108189
0.00516555
0.00304569
0.00516544
0.0108196
0.0177217
0.0212401
0.0100707
0.0105354
0.00714785
0.0034927
0.00212646
0.00349258
0.00714831
0.0105358
0.0100705
0.00274215
0.00521255
0.00479416
0.00251044
0.00162062
0.00251034
0.00479452
0.00521275
0.00274195
0.000122894
0.00217055
0.00312207
0.0018491
0.00122761
0.00184902
0.00312234
0.00217065
0.00012266
-0.000356207
0.00100091
0.00206206
0.00134655
0.000903119
0.00134648
0.00206218
0.00100088
-0.000356423
-0.000381019
0.000539645
0.00139634
0.000965452
0.000652764
0.000965453
0.0013965
0.000539653
-0.000381207
-0.000334091
0.00031006
0.000954865
0.000682756
0.000466323
0.000682797
0.000955032
0.000310087
-0.000334249
-0.00028178
0.00017554
0.000651392
0.000476716
0.000329618
0.000476788
0.000651554
0.000175578
-0.000281909
-0.000235643
9.07385e-05
0.000439923
0.000328381
0.000230288
0.000328472
0.000440077
9.07789e-05
-0.000235748
-0.000196336
3.70769e-05
0.000292302
0.000222695
0.000158677
0.000222795
0.000292446
3.71171e-05
-0.000196422
-0.000163036
4.14343e-06
0.000189848
0.000148075
0.000107443
0.000148177
0.00018998
4.18171e-06
-0.000163105
-0.000134866
-1.47201e-05
0.000119453
9.57374e-05
7.10074e-05
9.58377e-05
0.000119574
-1.46844e-05
-0.000134922
-0.000111042
-2.39741e-05
7.16639e-05
5.92005e-05
4.51989e-05
5.92948e-05
7.17724e-05
-2.39411e-05
-0.000111088
-9.08535e-05
-2.65628e-05
3.96559e-05
3.36905e-05
2.68973e-05
3.37759e-05
3.97522e-05
-2.65318e-05
-9.08922e-05
-7.35886e-05
-2.43145e-05
1.84451e-05
1.5688e-05
1.37525e-05
1.57614e-05
1.85288e-05
-2.42841e-05
-7.36224e-05
-5.85359e-05
-1.86284e-05
3.96625e-06
2.51295e-06
3.91435e-06
2.57052e-06
4.03501e-06
-1.85974e-05
-5.85676e-05
-4.58796e-05
-1.36631e-05
-8.71632e-06
-7.71106e-06
-3.926e-06
-7.67493e-06
-8.67223e-06
-1.3639e-05
-4.59146e-05
-3.97916e-05
-1.49346e-05
-1.49443e-05
-3.98427e-05
-3.49343e-05
-2.09954e-05
-1.26606e-05
-1.11321e-05
-1.14865e-05
-1.09586e-05
-1.25751e-05
-2.10003e-05
-3.4987e-05
-2.78341e-05
-2.46809e-05
-1.60309e-05
-1.21552e-05
-1.19783e-05
-1.18798e-05
-1.59044e-05
-2.46886e-05
-2.7887e-05
-1.60241e-05
-1.25172e-05
-1.18255e-05
-1.21389e-05
-1.57955e-05
-1.53246e-05
-1.23276e-05
-1.13114e-05
-1.19189e-05
-1.51138e-05
-1.47156e-05
-1.19716e-05
-1.0748e-05
-1.15702e-05
-1.45096e-05
-1.41048e-05
-1.15404e-05
-1.01814e-05
-1.11564e-05
-1.39087e-05
-1.34854e-05
-1.10728e-05
-9.62637e-06
-1.07095e-05
-1.32989e-05
-1.28575e-05
-1.05852e-05
-9.08724e-06
-1.02431e-05
-1.26808e-05
-1.22269e-05
-1.00874e-05
-8.56617e-06
-9.76638e-06
-1.20599e-05
-1.1599e-05
-9.5864e-06
-8.06434e-06
-9.28584e-06
-1.14417e-05
-1.09795e-05
-9.08806e-06
-7.58281e-06
-8.8072e-06
-1.08316e-05
-1.0369e-05
-8.59376e-06
-7.11984e-06
-8.33171e-06
-1.02303e-05
-9.81662e-06
-8.14487e-06
-6.70314e-06
-7.90014e-06
-9.68639e-06
-9.29456e-06
-7.71135e-06
-6.28093e-06
-7.48276e-06
-9.17251e-06
0.799367
0.683365
0.459074
0.200865
0.0686029
0.200867
0.459074
0.683364
0.799366
0.786864
0.663831
0.436579
0.18742
0.064453
0.187422
0.43658
0.663828
0.786862
0.735276
0.609344
0.388934
0.163036
0.0570787
0.163038
0.388934
0.609342
0.735274
0.65304
0.529507
0.327001
0.134157
0.0483915
0.134157
0.327
0.529504
0.653036
0.551959
0.437738
0.262028
0.105802
0.0396588
0.105802
0.262027
0.437734
0.551955
0.445593
0.346558
0.201955
0.0807554
0.0315997
0.0807574
0.201955
0.346555
0.44559
0.345308
0.264464
0.150795
0.0600387
0.0245519
0.0600425
0.150798
0.264461
0.345305
0.258271
0.195616
0.10966
0.0436584
0.0186353
0.0436633
0.109664
0.195614
0.258268
0.187324
0.140845
0.0779576
0.0311339
0.0138362
0.031139
0.0779628
0.140843
0.187321
0.132213
0.0990151
0.0543197
0.0218119
0.0100606
0.0218166
0.0543251
0.0990149
0.13221
0.0910132
0.0681064
0.0371706
0.0150324
0.00717159
0.0150365
0.0371757
0.0681069
0.0910112
0.0611623
0.0459051
0.0250264
0.0102062
0.00501742
0.0102096
0.0250308
0.0459059
0.0611608
0.0400428
0.0303416
0.0166261
0.00684306
0.00345057
0.00684567
0.0166297
0.0303426
0.0400416
0.0252756
0.0196609
0.0109635
0.00455422
0.00233908
0.0045562
0.0109664
0.0196618
0.0252748
0.0147492
0.0125172
0.00729633
0.00304572
0.00157208
0.00304721
0.00729855
0.012518
0.0147487
0.00455451
0.00701564
0.00509514
0.00212648
0.00106599
0.00212762
0.00509678
0.00701607
0.00455419
0.00116331
0.00274452
0.00343049
0.00162063
0.000766027
0.00162152
0.00343155
0.0027445
0.001163
-6.66343e-05
0.000673903
0.00202236
0.00122762
0.000580634
0.00122829
0.00202305
0.00067373
-6.6933e-05
-0.000162858
0.000204661
0.00126117
0.000903122
0.000443283
0.000903574
0.0012616
0.000204495
-0.00016313
-0.000178204
7.72404e-05
0.000839217
0.000652765
0.000333992
0.000653117
0.000839581
7.71252e-05
-0.000178437
-0.000167679
2.6253e-05
0.000574234
0.000466324
0.000247787
0.000466598
0.000574536
2.61845e-05
-0.000167869
-0.000153252
-1.78905e-06
0.000394598
0.000329619
0.000181178
0.000329834
0.000394846
-1.82368e-06
-0.000153405
-0.000136581
-1.86504e-05
0.000269079
0.000230288
0.000130538
0.000230459
0.000269279
-1.86627e-05
-0.000136702
-0.000119398
-2.81134e-05
0.000180711
0.000158677
9.26058e-05
0.000158812
0.000180872
-2.81122e-05
-0.000119494
-0.000102736
-3.23563e-05
0.00011875
0.000107443
6.45241e-05
0.000107549
0.000118878
-3.23478e-05
-0.000102812
-8.72449e-05
-3.29289e-05
7.57969e-05
7.10074e-05
4.39043e-05
7.10909e-05
7.58965e-05
-3.29173e-05
-8.73052e-05
-7.32567e-05
-3.08783e-05
4.64859e-05
4.51989e-05
2.88492e-05
4.52634e-05
4.65623e-05
-3.08664e-05
-7.33055e-05
-6.08619e-05
-2.68533e-05
2.68833e-05
2.68973e-05
1.78551e-05
2.6945e-05
2.69397e-05
-2.6843e-05
-6.09028e-05
-4.99289e-05
-2.11808e-05
1.40261e-05
1.37525e-05
9.71476e-06
1.37838e-05
1.40638e-05
-2.11742e-05
-4.99656e-05
-4.00856e-05
-1.42713e-05
5.2549e-06
3.91431e-06
3.38971e-06
3.92835e-06
5.27278e-06
-1.42717e-05
-4.0123e-05
-3.14266e-05
-8.68536e-06
-3.199e-06
-3.92603e-06
-1.91738e-06
-3.93023e-06
-3.20927e-06
-8.70636e-06
-3.14717e-05
-2.80649e-05
-9.444e-06
-9.50068e-06
-2.8125e-05
-2.6967e-05
-1.63092e-05
-1.3174e-05
-1.14864e-05
-1.03797e-05
-1.15061e-05
-1.32154e-05
-1.63705e-05
-2.70341e-05
-2.35455e-05
-2.14819e-05
-1.6506e-05
-1.19782e-05
-9.95328e-06
-1.19661e-05
-1.65454e-05
-2.15689e-05
-2.36257e-05
-1.63239e-05
-1.18255e-05
-9.51647e-06
-1.171e-05
-1.62869e-05
-1.52933e-05
-1.13114e-05
-9.03215e-06
-1.11143e-05
-1.52545e-05
-1.43207e-05
-1.0748e-05
-8.56885e-06
-1.05284e-05
-1.4276e-05
-1.34029e-05
-1.01814e-05
-8.12229e-06
-9.96103e-06
-1.33597e-05
-1.25399e-05
-9.62634e-06
-7.68892e-06
-9.41306e-06
-1.2499e-05
-1.17264e-05
-9.08722e-06
-7.26812e-06
-8.88341e-06
-1.16883e-05
-1.09594e-05
-8.56616e-06
-6.86054e-06
-8.37257e-06
-1.09244e-05
-1.02368e-05
-8.06432e-06
-6.46697e-06
-7.88115e-06
-1.02046e-05
-9.55664e-06
-7.5828e-06
-6.08838e-06
-7.40996e-06
-9.52726e-06
-8.91459e-06
-7.11983e-06
-5.72341e-06
-6.95712e-06
-8.88786e-06
-8.3398e-06
-6.70313e-06
-5.39449e-06
-6.54991e-06
-8.31545e-06
-7.75373e-06
-6.28093e-06
-5.05209e-06
-6.13678e-06
-7.73236e-06
0.983784
0.916153
0.720862
0.41347
0.200868
0.413471
0.720861
0.916152
0.983784
0.981514
0.905376
0.696073
0.388658
0.187423
0.388659
0.696073
0.905374
0.981513
0.95761
0.85845
0.631391
0.339117
0.163038
0.339119
0.631391
0.858449
0.957608
0.895567
0.772364
0.538849
0.278026
0.134157
0.278027
0.53885
0.772364
0.895564
0.789919
0.65603
0.435616
0.217103
0.105803
0.217105
0.435616
0.65603
0.789916
0.655526
0.527984
0.336534
0.163272
0.080758
0.163277
0.336535
0.527984
0.655522
0.515119
0.405698
0.250474
0.119196
0.060043
0.119204
0.250477
0.405697
0.515115
0.386857
0.300034
0.180818
0.0849436
0.0436637
0.0849539
0.180822
0.300034
0.386853
0.279935
0.214981
0.127264
0.0593162
0.0311393
0.0593272
0.127269
0.21498
0.279931
0.196338
0.149963
0.0876528
0.0406916
0.0218169
0.0407022
0.0876588
0.149962
0.196334
0.133978
0.102169
0.0592338
0.0274742
0.0150367
0.0274837
0.0592398
0.102168
0.133975
0.0891048
0.0681178
0.0393578
0.0182886
0.0102097
0.0182967
0.0393633
0.0681175
0.0891026
0.0576836
0.0444778
0.025774
0.0120331
0.00684574
0.0120398
0.0257789
0.0444777
0.0576819
0.0360592
0.0284168
0.0167058
0.00786581
0.00455625
0.00787109
0.0167099
0.0284169
0.036058
0.0212411
0.0177218
0.0108193
0.00516552
0.00304724
0.00516966
0.0108225
0.017722
0.0212403
0.0100711
0.0105358
0.00714808
0.00349264
0.00212764
0.00349587
0.00715057
0.010536
0.0100705
0.0027423
0.00521278
0.00479432
0.00251037
0.00162154
0.0025129
0.00479613
0.0052128
0.00274192
0.000122919
0.00217065
0.00312218
0.00184904
0.0012283
0.00185102
0.00312351
0.00217059
0.000122615
-0.00035622
0.00100095
0.00206214
0.00134649
0.00090358
0.00134806
0.00206319
0.00100088
-0.000356481
-0.000381054
0.000539666
0.00139642
0.000965462
0.000653121
0.000966638
0.00139729
0.000539618
-0.000381274
-0.000334134
0.000310076
0.000954954
0.000682803
0.000466601
0.000683691
0.000955662
0.000310054
-0.000334314
-0.000281822
0.000175561
0.000651497
0.000476792
0.000329836
0.000477454
0.000652059
0.000175555
-0.000281968
-0.000235681
9.07671e-05
0.000440042
0.000328475
0.00023046
0.000328965
0.000440478
9.07675e-05
-0.0002358
-0.000196368
3.71139e-05
0.00029243
0.000222796
0.000158813
0.000223155
0.000292761
3.71144e-05
-0.000196466
-0.00016306
4.18817e-06
0.000189979
0.000148178
0.00010755
0.000148436
0.000190224
4.18491e-06
-0.000163142
-0.000134882
-1.46687e-05
0.000119584
9.58382e-05
7.10913e-05
9.60204e-05
0.000119759
-1.46775e-05
-0.000134953
-0.000111051
-2.39168e-05
7.17902e-05
5.92951e-05
4.52636e-05
5.94189e-05
7.19095e-05
-2.39322e-05
-0.000111114
-9.08553e-05
-2.64992e-05
3.97756e-05
3.3776e-05
2.69451e-05
3.38539e-05
3.985e-05
-2.65219e-05
-9.09137e-05
-7.35819e-05
-2.42423e-05
1.85562e-05
1.57614e-05
1.37838e-05
1.58011e-05
1.85928e-05
-2.42745e-05
-7.3641e-05
-5.85176e-05
-1.85438e-05
4.06488e-06
2.57047e-06
3.92834e-06
2.57474e-06
4.06558e-06
-1.85891e-05
-5.8584e-05
-4.5846e-05
-1.35665e-05
-8.64018e-06
-7.67501e-06
-3.93027e-06
-7.70316e-06
-8.6886e-06
-1.36436e-05
-4.59286e-05
-3.97502e-05
-1.48084e-05
-1.49526e-05
-3.98555e-05
-3.48809e-05
-2.08646e-05
-1.25016e-05
-1.09585e-05
-1.15061e-05
-1.11525e-05
-1.26852e-05
-2.10271e-05
-3.5004e-05
-2.77598e-05
-2.45281e-05
-1.57994e-05
-1.18797e-05
-1.19661e-05
-1.21017e-05
-1.60275e-05
-2.47358e-05
-2.7908e-05
-1.57186e-05
-1.21389e-05
-1.17099e-05
-1.22497e-05
-1.58928e-05
-1.49862e-05
-1.19189e-05
-1.11142e-05
-1.1868e-05
-1.51204e-05
-1.43754e-05
-1.15701e-05
-1.05284e-05
-1.14603e-05
-1.44902e-05
-1.37723e-05
-1.11564e-05
-9.961e-06
-1.10275e-05
-1.38792e-05
-1.31648e-05
-1.07095e-05
-9.41304e-06
-1.0577e-05
-1.32667e-05
-1.25504e-05
-1.02431e-05
-8.88339e-06
-1.01122e-05
-1.26484e-05
-1.19339e-05
-9.76637e-06
-8.37256e-06
-9.63913e-06
-1.20281e-05
-1.13206e-05
-9.28583e-06
-7.88113e-06
-9.16321e-06
-1.1411e-05
-1.07156e-05
-8.80719e-06
-7.40996e-06
-8.68976e-06
-1.08022e-05
-1.01196e-05
-8.3317e-06
-6.95711e-06
-8.21975e-06
-1.02023e-05
-9.58075e-06
-7.90014e-06
-6.5499e-06
-7.79357e-06
-9.6598e-06
-9.07119e-06
-7.48276e-06
-6.13677e-06
-7.38227e-06
-9.14849e-06
1.00043
0.98931
0.924606
0.72086
0.459074
0.72086
0.924605
0.989309
1.00043
0.999494
0.988155
0.913629
0.696073
0.43658
0.696072
0.913627
0.988154
0.999494
1.00039
0.969881
0.865062
0.631391
0.388935
0.631391
0.86506
0.96988
1.00039
0.982484
0.919778
0.777263
0.538849
0.327001
0.538849
0.777263
0.919777
0.982483
0.918251
0.826669
0.660218
0.435617
0.262027
0.435616
0.660217
0.826667
0.918249
0.80404
0.700029
0.531994
0.336536
0.201956
0.336535
0.531994
0.700027
0.804038
0.660313
0.560689
0.409364
0.250475
0.150798
0.250476
0.409365
0.560686
0.660311
0.513284
0.428284
0.303083
0.18082
0.109665
0.180822
0.303084
0.428282
0.513281
0.381432
0.314582
0.217351
0.127265
0.0779631
0.127269
0.217352
0.31458
0.38143
0.273139
0.223676
0.151762
0.0876541
0.0543253
0.0876588
0.151763
0.223675
0.273137
0.189538
0.154694
0.103558
0.0592348
0.0371759
0.0592397
0.10356
0.154693
0.189537
0.12791
0.104395
0.0692451
0.0393586
0.0250309
0.0393633
0.0692465
0.104395
0.127909
0.0840857
0.0688884
0.0454752
0.0257747
0.0166298
0.0257789
0.0454766
0.0688878
0.0840846
0.0537997
0.0445151
0.0294233
0.0167063
0.0109665
0.0167099
0.0294247
0.0445147
0.0537988
0.0333458
0.028228
0.0188772
0.0108197
0.00729859
0.0108225
0.0188784
0.0282277
0.0333451
0.0196949
0.0176551
0.012176
0.00714838
0.00509681
0.00715057
0.0121771
0.017655
0.0196944
0.0102532
0.0108188
0.00803305
0.00479457
0.00343157
0.00479613
0.00803401
0.0108187
0.0102528
0.00491025
0.00655716
0.00541681
0.00312237
0.00202306
0.00312351
0.00541765
0.00655715
0.00490995
0.00262822
0.00415924
0.00372231
0.0020622
0.00126161
0.00206319
0.00372307
0.00415924
0.00262798
0.00160008
0.00276822
0.00258791
0.00139652
0.000839588
0.00139729
0.0025885
0.00276822
0.00159989
0.0010325
0.00188262
0.00180104
0.000955044
0.000574541
0.000955665
0.00180152
0.0018826
0.00103234
0.000673238
0.00128373
0.00124597
0.000651562
0.000394851
0.000652062
0.00124634
0.00128368
0.000673094
0.000431131
0.000868058
0.000853021
0.000440083
0.000269283
0.000440481
0.000853294
0.000867991
0.000431002
0.0002657
0.000578061
0.000575956
0.000292449
0.000180874
0.000292763
0.000576152
0.000577975
0.00026558
0.000153507
0.000376813
0.000381972
0.000189983
0.00011888
0.000190226
0.000382105
0.000376712
0.000153394
7.89156e-05
0.000238627
0.000247288
0.000119575
7.58979e-05
0.00011976
0.000247373
0.000238518
7.88073e-05
3.08794e-05
0.000145145
0.000154588
7.17735e-05
4.65633e-05
7.19107e-05
0.000154636
0.00014503
3.07747e-05
1.52464e-06
8.32494e-05
9.12526e-05
3.97529e-05
2.69403e-05
3.98509e-05
9.12728e-05
8.31313e-05
1.42128e-06
-1.46719e-05
4.37227e-05
4.79415e-05
1.85292e-05
1.40643e-05
1.85935e-05
4.79399e-05
4.35998e-05
-1.47784e-05
-2.15614e-05
2.01222e-05
1.69886e-05
4.03518e-06
5.27302e-06
4.06594e-06
1.69688e-05
1.99914e-05
-2.16787e-05
-2.30796e-05
3.06683e-06
-1.16292e-05
-8.67227e-06
-3.20925e-06
-8.68852e-06
-1.16832e-05
2.9224e-06
-2.3216e-05
-2.29713e-05
-3.91169e-06
-4.13106e-06
-2.31281e-05
-2.10224e-05
-7.86299e-06
-3.45118e-06
-1.25751e-05
-1.32154e-05
-1.2685e-05
-3.62436e-06
-8.0698e-06
-2.11796e-05
-2.18509e-05
-1.69888e-05
-9.91705e-06
-1.59044e-05
-1.65453e-05
-1.60273e-05
-1.01274e-05
-1.71916e-05
-2.19968e-05
-1.18207e-05
-1.57954e-05
-1.62869e-05
-1.58927e-05
-1.20624e-05
-1.21161e-05
-1.51138e-05
-1.52545e-05
-1.51203e-05
-1.23335e-05
-1.22717e-05
-1.45096e-05
-1.4276e-05
-1.44902e-05
-1.24776e-05
-1.22887e-05
-1.39086e-05
-1.33597e-05
-1.38791e-05
-1.2483e-05
-1.21932e-05
-1.32989e-05
-1.2499e-05
-1.32667e-05
-1.23762e-05
-1.20011e-05
-1.26808e-05
-1.16883e-05
-1.26483e-05
-1.21731e-05
-1.17305e-05
-1.20599e-05
-1.09244e-05
-1.20281e-05
-1.1892e-05
-1.13979e-05
-1.14417e-05
-1.02046e-05
-1.14109e-05
-1.15493e-05
-1.10182e-05
-1.08316e-05
-9.52726e-06
-1.08022e-05
-1.116e-05
-1.05998e-05
-1.02303e-05
-8.88786e-06
-1.02023e-05
-1.07324e-05
-1.02101e-05
-9.68639e-06
-8.31545e-06
-9.65977e-06
-1.03343e-05
-9.9204e-06
-9.17252e-06
-7.73237e-06
-9.14847e-06
-1.00371e-05
0.998491
0.990227
0.98931
0.916151
0.683363
0.916151
0.989309
0.990227
0.998491
0.998008
0.989488
0.988154
0.905373
0.663828
0.905373
0.988154
0.989487
0.998008
0.995346
0.98224
0.96988
0.858447
0.609342
0.858448
0.96988
0.982239
0.995346
0.982985
0.957997
0.919777
0.77236
0.529504
0.772363
0.919777
0.957996
0.982983
0.938441
0.896152
0.826666
0.656026
0.437734
0.656029
0.826667
0.896151
0.938439
0.847292
0.791479
0.700027
0.52798
0.346555
0.527984
0.700027
0.791479
0.84729
0.718434
0.658368
0.560687
0.405694
0.264461
0.405697
0.560686
0.658367
0.718431
0.574826
0.519016
0.428282
0.300031
0.195614
0.300033
0.428282
0.519016
0.574824
0.437827
0.391111
0.314581
0.214978
0.140844
0.21498
0.31458
0.39111
0.437825
0.32014
0.28391
0.223675
0.149961
0.0990151
0.149962
0.223675
0.283909
0.320138
0.226228
0.199714
0.154693
0.102168
0.068107
0.102168
0.154693
0.199713
0.226226
0.15527
0.136727
0.104395
0.0681172
0.045906
0.0681174
0.104395
0.136726
0.155269
0.103912
0.0913989
0.0688879
0.0444774
0.0303427
0.0444776
0.0688878
0.0913985
0.103911
0.0680636
0.0598539
0.0445147
0.0284166
0.0196618
0.0284168
0.0445146
0.0598537
0.0680631
0.0438518
0.0385905
0.0282277
0.0177218
0.012518
0.017722
0.0282277
0.0385903
0.0438514
0.0280055
0.0247317
0.0176549
0.0105359
0.00701611
0.010536
0.017655
0.0247316
0.0280052
0.0177888
0.0159708
0.0108186
0.00521281
0.00274451
0.00521281
0.0108187
0.0159707
0.0177886
0.0113294
0.0105056
0.00655713
0.00217067
0.000673737
0.0021706
0.00655715
0.0105055
0.0113292
0.00744879
0.00709768
0.00415917
0.0010009
0.000204499
0.00100088
0.00415925
0.00709766
0.00744862
0.00505641
0.0048978
0.00276825
0.000539662
7.71282e-05
0.000539622
0.00276822
0.00489774
0.00505625
0.00348406
0.00340822
0.00188267
0.000310094
2.61869e-05
0.000310058
0.00188261
0.00340815
0.0034839
0.00240387
0.00236881
0.00128376
0.000175582
-1.82183e-06
0.000175559
0.00128369
0.00236871
0.0024037
0.00164667
0.00163445
0.000868072
9.0782e-05
-1.86613e-05
9.07705e-05
0.000867995
0.00163435
0.00164649
0.00111387
0.00111514
0.000578052
3.71192e-05
-2.8111e-05
3.71169e-05
0.000577978
0.00111503
0.00111369
0.000740867
0.000749849
0.000376785
4.1831e-06
-3.23469e-05
4.18709e-06
0.000376715
0.000749736
0.000740695
0.000482373
0.000495147
0.000238585
-1.46835e-05
-3.29165e-05
-1.46757e-05
0.00023852
0.000495034
0.000482206
0.000305719
0.000319582
0.000145092
-2.39405e-05
-3.08658e-05
-2.39307e-05
0.000145032
0.00031947
0.00030556
0.000187155
0.000200303
8.31892e-05
-2.65314e-05
-2.68425e-05
-2.65208e-05
8.31328e-05
0.000200191
0.000187003
0.00010938
0.000120814
4.36567e-05
-2.42839e-05
-2.11738e-05
-2.42736e-05
4.3601e-05
0.000120699
0.000109234
5.9675e-05
6.92468e-05
2.00519e-05
-1.85972e-05
-1.42714e-05
-1.85884e-05
1.99922e-05