/*--------------------------------*- C++ -*----------------------------------*\
  =========                 |
  \\      /  F ield         | OpenFOAM: The Open Source CFD Toolbox
   \\    /   O peration     | Website:  https://openfoam.org
    \\  /    A nd           | Version:  6
     \\/     M anipulation  |
\*---------------------------------------------------------------------------*/
FoamFile
{
    version     2.0;
    format      ascii;
    class       volScalarField;
    location    "0.2";
    object      alpha_gas;
}
// * * * * * * * * * * * * * * * * * * * * * * * * * * * * * * * * * * * * * //

dimensions      [0 0 0 0 0 0 0];

internalField   nonuniform List<scalar> 
3029
(
-5.98829e-19
-8.35058e-19
-2.29366e-18
-5.85675e-18
-1.68664e-17
-5.85654e-18
-2.29355e-18
-8.35031e-19
-5.98799e-19
-6.79482e-18
-1.42475e-17
-5.46973e-17
-1.64327e-16
-4.2626e-16
-1.64321e-16
-5.46941e-17
-1.42467e-17
-6.79445e-18
-9.57702e-17
-2.89903e-16
-1.21169e-15
-4.50951e-15
-1.04515e-14
-4.50934e-15
-1.21162e-15
-2.89883e-16
-9.57651e-17
-2.87006e-15
-8.52749e-15
-3.46142e-14
-1.10858e-13
-2.35877e-13
-1.10854e-13
-3.46122e-14
-8.52688e-15
-2.8699e-15
-6.84112e-14
-2.00857e-13
-7.87072e-13
-2.2935e-12
-4.67524e-12
-2.29343e-12
-7.87028e-13
-2.00842e-13
-6.84077e-14
-1.31607e-12
-3.84543e-12
-1.45129e-11
-3.89369e-11
-7.69483e-11
-3.89357e-11
-1.45122e-11
-3.84518e-12
-1.316e-12
-2.04585e-11
-5.90145e-11
-2.10269e-10
-5.03298e-10
-9.48922e-10
-5.03286e-10
-2.1026e-10
-5.90109e-11
-2.04576e-11
-2.43874e-10
-6.74549e-10
-2.14619e-09
-4.06944e-09
-6.73348e-09
-4.06938e-09
-2.14613e-09
-6.74514e-10
-2.43865e-10
-1.9327e-09
-4.69922e-09
-1.12578e-08
-8.28532e-09
-3.11314e-10
-8.28567e-09
-1.12577e-08
-4.69904e-09
-1.93265e-09
-6.86981e-09
-9.89577e-09
-9.8792e-09
-1.2245e-08
-5.67746e-08
-1.22429e-08
-9.87908e-09
-9.89573e-09
-6.86968e-09
-2.37023e-08
-1.18381e-07
-9.77964e-07
-4.21421e-06
-8.98141e-06
-4.21409e-06
-9.77897e-07
-1.18366e-07
-2.37005e-08
-1.00154e-06
-3.41687e-06
-4.08299e-06
3.54563e-05
0.000100841
3.54547e-05
-4.08348e-06
-3.41677e-06
-1.00151e-06
1.67325e-06
2.35936e-05
4.71475e-05
-0.000328857
-0.000963717
-0.000328843
4.71509e-05
2.35927e-05
1.67313e-06
-9.50683e-06
-0.00020966
-0.000663426
0.00195934
0.00664088
0.00195926
-0.000663439
-0.000209651
-9.50594e-06
-0.000128951
0.000803904
0.0041497
-0.0122033
-0.0456763
-0.012203
0.00414974
0.00080387
-0.000128951
0.00059642
-0.00274028
-0.0290947
0.0487
0.403883
0.0486986
-0.0290946
-0.00274016
0.000596414
-0.00257267
-0.0106033
0.115632
0.678252
0.998756
0.67825
0.11563
-0.0106032
-0.00257262
-0.00891694
0.00604375
0.333039
0.948556
1.02547
0.948554
0.333036
0.00604333
-0.00891681
-0.0130048
0.0290326
0.450578
1.02279
1.03427
1.02279
0.450573
0.0290314
-0.0130047
-0.0135947
0.045799
0.490415
1.02742
1.03487
1.02742
0.49041
0.0457973
-0.0135945
-0.0117028
0.0552357
0.485891
0.996664
1.02304
0.996661
0.485885
0.0552338
-0.0117026
-0.00863496
0.0592612
0.45705
0.938812
0.989742
0.938809
0.457044
0.0592593
-0.00863477
-0.00535923
0.0596278
0.415417
0.859949
0.931331
0.859945
0.415411
0.0596261
-0.00535908
-0.00242781
0.0575866
0.368193
0.767963
0.851751
0.76796
0.368188
0.057585
-0.00242775
-8.08847e-05
0.0540516
0.320113
0.670752
0.758828
0.670749
0.320109
0.0540504
-8.09068e-05
0.00162951
0.0497201
0.274216
0.574722
0.660604
0.57472
0.274212
0.0497192
0.0016294
0.0027573
0.0451327
0.232339
0.484406
0.563661
0.484404
0.232336
0.0451321
0.00275711
0.00342468
0.0406894
0.195392
0.402611
0.47274
0.402609
0.19539
0.040689
0.00342443
0.00380737
0.0366011
0.163374
0.330539
0.390716
0.330538
0.163373
0.0366009
0.00380707
0.00409209
0.0327882
0.135319
0.268033
0.318821
0.268032
0.135319
0.0327883
0.00409174
0.00415957
0.0282646
0.108442
0.210633
0.25197
0.210632
0.108442
0.0282648
0.00415919
0.00344354
0.0217075
0.0853829
0.17266
0.210994
0.172659
0.0853828
0.0217077
0.00344318
0.00200869
0.0125366
0.0587856
0.138715
0.181608
0.138715
0.0587857
0.0125369
0.00200838
0.000227146
0.00273084
0.0236084
0.0793872
0.123031
0.079387
0.0236086
0.00273106
0.000226941
-8.35059e-19
-9.63546e-19
-2.11323e-18
-5.58482e-18
-1.39513e-17
-5.58444e-18
-2.1131e-18
-9.63519e-19
-8.35027e-19
-1.42476e-17
-1.65984e-17
-4.27105e-17
-1.24747e-16
-2.91938e-16
-1.24741e-16
-4.27082e-17
-1.65979e-17
-1.4247e-17
-2.89904e-16
-3.26521e-16
-8.46536e-16
-2.75243e-15
-6.147e-15
-2.75231e-15
-8.4649e-16
-3.26509e-16
-2.89894e-16
-8.52753e-15
-7.52402e-15
-1.86565e-14
-5.82044e-14
-1.25536e-13
-5.82019e-14
-1.86555e-14
-7.52371e-15
-8.52724e-15
-2.00858e-13
-1.51489e-13
-3.66916e-13
-1.11031e-12
-2.35857e-12
-1.11027e-12
-3.66895e-13
-1.51482e-13
-2.00851e-13
-3.84545e-12
-2.61125e-12
-6.21889e-12
-1.8173e-11
-3.81602e-11
-1.81723e-11
-6.21856e-12
-2.61114e-12
-3.84534e-12
-5.90148e-11
-3.70724e-11
-8.58071e-11
-2.35036e-10
-4.80022e-10
-2.35029e-10
-8.58031e-11
-3.70709e-11
-5.90132e-11
-6.74552e-10
-3.97322e-10
-8.59498e-10
-2.01984e-09
-3.73939e-09
-2.0198e-09
-8.59466e-10
-3.97308e-10
-6.74536e-10
-4.69923e-09
-2.62046e-09
-4.68221e-09
-6.30031e-09
-4.81144e-09
-6.30042e-09
-4.68212e-09
-2.62038e-09
-4.69914e-09
-9.89573e-09
-5.52177e-09
-4.56293e-09
1.53371e-09
1.00314e-08
1.53385e-09
-4.56298e-09
-5.52163e-09
-9.89561e-09
-1.18382e-07
-6.19404e-08
-2.92418e-07
-1.59047e-06
-4.41575e-06
-1.5904e-06
-2.92393e-07
-6.19361e-08
-1.18377e-07
-3.41688e-06
-1.76735e-06
-3.11603e-06
5.62012e-06
3.83042e-05
5.6194e-06
-3.11609e-06
-1.76729e-06
-3.41684e-06
2.35937e-05
9.38366e-06
3.00212e-05
-2.62801e-05
-0.000327397
-2.62748e-05
3.00212e-05
9.38328e-06
2.35934e-05
-0.00020966
-6.71001e-05
-0.000312258
-0.000214089
0.0018256
-0.000214114
-0.000312253
-6.70973e-05
-0.000209657
0.000803904
5.58408e-05
0.00152919
0.0021044
-0.0104699
0.00210449
0.00152916
5.58359e-05
0.000803894
-0.00274027
0.000310787
-0.0072161
-0.0244332
0.0371934
-0.0244332
-0.00721594
0.000310787
-0.00274023
-0.0106033
-0.00522903
0.0077244
0.217935
0.587579
0.217933
0.00772407
-0.00522892
-0.0106032
0.00604368
-0.008865
0.0720098
0.496227
0.870658
0.496224
0.0720083
-0.00886493
0.00604353
0.0290324
-0.00563084
0.127918
0.62675
0.946643
0.626746
0.127916
-0.00563085
0.029032
0.0457986
0.00180429
0.159591
0.662748
0.9462
0.662744
0.159587
0.00180412
0.0457982
0.0552352
0.010291
0.171999
0.648035
0.908623
0.64803
0.171996
0.0102906
0.0552347
0.0592606
0.0178753
0.171953
0.605549
0.846295
0.605544
0.171949
0.0178747
0.05926
0.0596271
0.0236423
0.164243
0.548177
0.767058
0.548172
0.164239
0.0236416
0.0596265
0.0575857
0.0273768
0.152042
0.484043
0.678281
0.484039
0.152038
0.0273761
0.0575851
0.0540506
0.0292615
0.137445
0.418535
0.586436
0.418532
0.137442
0.0292608
0.0540501
0.0497191
0.029669
0.121904
0.355021
0.496351
0.355019
0.121902
0.0296685
0.0497185
0.0451317
0.0290511
0.106418
0.295299
0.410882
0.295297
0.106417
0.0290507
0.0451311
0.0406883
0.0278926
0.0915786
0.239819
0.330972
0.239818
0.0915778
0.0278924
0.0406878
0.0366001
0.0266589
0.0773771
0.187557
0.255553
0.187556
0.077377
0.0266588
0.0365996
0.0327873
0.0258786
0.0635522
0.136846
0.182835
0.136846
0.0635525
0.0258787
0.0327868
0.0282638
0.0238927
0.0414225
0.0762512
0.0990531
0.0762514
0.0414232
0.023893
0.0282633
0.0217068
0.0207388
0.033954
0.0587185
0.0750451
0.0587188
0.0339548
0.0207392
0.0217063
0.0125361
0.0134554
0.0340428
0.0787454
0.105756
0.0787453
0.0340434
0.0134559
0.0125358
0.00273067
0.00244002
0.0173134
0.0672269
0.108027
0.0672265
0.0173137
0.00244032
0.00273042
-2.29367e-18
-2.11324e-18
-2.41638e-18
-4.4605e-18
-9.29737e-18
-4.46004e-18
-2.41622e-18
-2.11319e-18
-2.29359e-18
-5.46975e-17
-4.27106e-17
-4.14264e-17
-7.65941e-17
-1.56354e-16
-7.65904e-17
-4.14258e-17
-4.27108e-17
-5.46958e-17
-1.2117e-15
-8.46541e-16
-7.06147e-16
-1.34371e-15
-2.75214e-15
-1.34367e-15
-7.06145e-16
-8.4654e-16
-1.21166e-15
-3.46143e-14
-1.86566e-14
-1.25699e-14
-2.36845e-14
-4.91341e-14
-2.36838e-14
-1.25699e-14
-1.86566e-14
-3.46133e-14
-7.87074e-13
-3.66918e-13
-2.10462e-13
-4.0134e-13
-8.50695e-13
-4.01328e-13
-2.10462e-13
-3.66915e-13
-7.87053e-13
-1.4513e-11
-6.21893e-12
-3.19386e-12
-6.20116e-12
-1.33932e-11
-6.20099e-12
-3.19385e-12
-6.21887e-12
-1.45126e-11
-2.10269e-10
-8.58075e-11
-4.12023e-11
-8.06956e-11
-1.74959e-10
-8.06938e-11
-4.12023e-11
-8.58067e-11
-2.10265e-10
-2.14619e-09
-8.59501e-10
-4.04225e-10
-7.7434e-10
-1.61414e-09
-7.74328e-10
-4.04226e-10
-8.59493e-10
-2.14616e-09
-1.12578e-08
-4.68221e-09
-2.3957e-09
-4.06221e-09
-6.75449e-09
-4.06221e-09
-2.39572e-09
-4.68217e-09
-1.12577e-08
-9.87908e-09
-4.56285e-09
-5.08127e-09
-6.1535e-09
-1.32804e-09
-6.15368e-09
-5.08138e-09
-4.56269e-09
-9.87882e-09
-9.77968e-07
-2.9242e-07
-9.5797e-08
-3.1924e-07
-1.03885e-06
-3.19225e-07
-9.57949e-08
-2.92415e-07
-9.77942e-07
-4.08297e-06
-3.11603e-06
-1.4372e-06
-2.1441e-06
3.32875e-07
-2.14417e-06
-1.4372e-06
-3.11603e-06
-4.0831e-06
4.71475e-05
3.00212e-05
8.6466e-06
2.17499e-05
1.84166e-05
2.175e-05
8.6465e-06
3.00213e-05
4.71485e-05
-0.000663427
-0.000312258
-7.36171e-05
-0.000264569
-0.000471239
-0.000264565
-7.3616e-05
-0.000312258
-0.000663429
0.00414971
0.00152919
0.000144427
0.00133335
0.00334691
0.00133332
0.000144423
0.00152919
0.00414972
-0.0290947
-0.00721609
-0.000236723
-0.00633712
-0.0233572
-0.006337
-0.000236714
-0.00721607
-0.0290947
0.115632
0.00772435
-0.00283488
0.00313001
0.0765274
0.00312982
-0.00283485
0.00772433
0.115631
0.333038
0.0720095
-0.000445063
0.0597531
0.252528
0.0597521
-0.000445134
0.0720092
0.333037
0.450577
0.127918
0.0076904
0.110025
0.348513
0.110023
0.00769027
0.127917
0.450575
0.490414
0.15959
0.0179606
0.138105
0.377889
0.138103
0.0179603
0.15959
0.490412
0.485889
0.171998
0.0277277
0.148514
0.369539
0.148511
0.0277272
0.171998
0.485887
0.457049
0.171952
0.035559
0.147756
0.34206
0.147753
0.0355583
0.171951
0.457046
0.415415
0.164241
0.0408949
0.140251
0.305794
0.140248
0.0408941
0.16424
0.415413
0.368191
0.15204
0.043717
0.128927
0.266549
0.128925
0.0437163
0.152039
0.368189
0.320111
0.137443
0.0443246
0.115504
0.227428
0.115502
0.0443239
0.137442
0.320109
0.274213
0.121902
0.04317
0.100999
0.189868
0.100998
0.0431694
0.121901
0.274212
0.232336
0.106416
0.0407292
0.085938
0.154213
0.0859374
0.0407288
0.106415
0.232335
0.19539
0.0915765
0.0373815
0.0703283
0.11988
0.0703281
0.0373813
0.0915759
0.195389
0.163372
0.0773753
0.0331514
0.0534165
0.0852713
0.0534166
0.0331515
0.0773748
0.163371
0.135317
0.0635507
0.0268378
0.0328751
0.0474135
0.0328756
0.0268382
0.0635504
0.135317
0.10844
0.0414215
0.00652
0.00280016
0.00197579
0.00280065
0.00652057
0.0414216
0.10844
0.0853813
0.0339531
0.033953
0.0853812
0.0587843
0.0340419
0.0237779
0.0481162
0.0756126
0.048116
0.0237784
0.034042
0.0587842
0.0236077
0.0173128
0.0164827
0.0488871
0.0856529
0.0488865
0.0164833
0.017313
0.0236076
0.0135332
0.0439708
0.0807383
0.0439694
0.0135343
0.0123781
0.0399064
0.07411
0.0399037
0.0123791
0.0115696
0.0366207
0.0679672
0.0366176
0.0115704
0.010893
0.0337747
0.0623843
0.0337715
0.0108936
0.0102638
0.0311935
0.0572694
0.0311903
0.0102643
0.00966521
0.0288106
0.0525571
0.0288073
0.00966554
0.00909199
0.026598
0.0482074
0.0265947
0.00909218
0.00854293
0.0245406
0.0441917
0.0245373
0.00854299
0.00801826
0.0226293
0.0404884
0.022626
0.00801821
0.00751063
0.0208386
0.0370478
0.0208353
0.00751047
0.00705875
0.0192641
0.0340371
0.0192608
0.0070585
0.00629281
0.0169752
0.029807
0.016972
0.00629245
-5.85675e-18
-5.58483e-18
-4.46052e-18
-3.84043e-18
-4.96745e-18
-3.83967e-18
-4.46022e-18
-5.58476e-18
-5.85653e-18
-1.64327e-16
-1.24748e-16
-7.65947e-17
-5.26801e-17
-6.51337e-17
-5.26759e-17
-7.65944e-17
-1.24748e-16
-1.64323e-16
-4.50951e-15
-2.75244e-15
-1.34373e-15
-7.6317e-16
-9.38214e-16
-7.63166e-16
-1.34377e-15
-2.75245e-15
-4.5094e-15
-1.10858e-13
-5.82045e-14
-2.36848e-14
-1.15195e-14
-1.44014e-14
-1.15198e-14
-2.36856e-14
-5.82045e-14
-1.10855e-13
-2.2935e-12
-1.11031e-12
-4.01345e-13
-1.75551e-13
-2.25678e-13
-1.75557e-13
-4.01359e-13
-1.11031e-12
-2.29346e-12
-3.89369e-11
-1.8173e-11
-6.20124e-12
-2.55103e-12
-3.37307e-12
-2.55113e-12
-6.20142e-12
-1.81729e-11
-3.89362e-11
-5.03298e-10
-2.35037e-10
-8.06965e-11
-3.26015e-11
-4.40167e-11
-3.26028e-11
-8.06986e-11
-2.35035e-10
-5.0329e-10
-4.06943e-09
-2.01984e-09
-7.74346e-10
-3.26075e-10
-4.40639e-10
-3.26087e-10
-7.74362e-10
-2.01982e-09
-4.06939e-09
-8.28528e-09
-6.30028e-09
-4.06222e-09
-2.05974e-09
-2.60173e-09
-2.05982e-09
-4.06226e-09
-6.30022e-09
-8.28532e-09
-1.22446e-08
1.53387e-09
-6.15344e-09
-5.229e-09
-4.2038e-09
-5.22916e-09
-6.1534e-09
1.53396e-09
-1.22434e-08
-4.21421e-06
-1.59047e-06
-3.19242e-07
-6.94322e-08
-1.21386e-07
-6.94338e-08
-3.1925e-07
-1.59046e-06
-4.21415e-06
3.54563e-05
5.62015e-06
-2.1441e-06
-1.20472e-06
-1.63342e-06
-1.20476e-06
-2.14409e-06
5.62009e-06
3.54557e-05
-0.000328856
-2.62801e-05
2.17499e-05
5.56884e-06
1.25485e-05
5.56903e-06
2.17501e-05
-2.62796e-05
-0.000328851
0.00195933
-0.00021409
-0.000264569
-4.50439e-05
-0.000120801
-4.50449e-05
-0.000264571
-0.000214092
0.0019593
-0.0122033
0.00210441
0.00133334
-5.8556e-06
0.000450313
-5.85594e-06
0.00133336
0.00210442
-0.0122031
0.0486997
-0.0244332
-0.0063371
0.000472535
-0.00126982
0.000472546
-0.00633715
-0.0244332
0.0486989
0.678252
0.217935
0.00312996
-0.00517389
-0.00867145
-0.00517394
0.00313002
0.217934
0.67825
0.948556
0.496226
0.0597528
-0.0103084
-0.00233095
-0.0103086
0.059753
0.496225
0.948555
1.02279
0.626749
0.110024
-0.009288
0.00975476
-0.00928812
0.110025
0.626748
1.02279
1.02742
0.662747
0.138104
-0.00407597
0.0197286
-0.00407608
0.138105
0.662746
1.02742
0.996663
0.648034
0.148512
0.00254154
0.0261638
0.00254135
0.148513
0.648033
0.996661
0.938811
0.605547
0.147754
0.00877255
0.0296838
0.00877231
0.147755
0.605546
0.938809
0.859948
0.548175
0.140249
0.0137201
0.031007
0.0137198
0.140249
0.548174
0.859946
0.767963
0.484041
0.128925
0.0170461
0.0306804
0.0170459
0.128925
0.484041
0.767961
0.670752
0.418533
0.115501
0.0188154
0.0291196
0.0188152
0.115502
0.418532
0.67075
0.574722
0.355019
0.100997
0.0192014
0.0265989
0.0192013
0.100997
0.355019
0.574721
0.484405
0.295297
0.0859359
0.0183789
0.0232702
0.0183789
0.0859359
0.295297
0.484404
0.40261
0.239817
0.0703265
0.0164276
0.019144
0.0164277
0.0703264
0.239817
0.40261
0.330538
0.187555
0.0534149
0.0132312
0.0140815
0.0132314
0.0534149
0.187555
0.330538
0.268032
0.136845
0.032874
0.00833591
0.00792867
0.00833614
0.0328741
0.136845
0.268032
0.210632
0.07625
0.00279979
0.00236761
0.00193006
0.00236776
0.00279991
0.0762501
0.210632
0.172659
0.0587176
0.0587173
0.172659
0.138715
0.0787445
0.0481155
0.0358907
0.0482066
0.0358905
0.0481158
0.0787445
0.138715
0.0793866
0.0672262
0.0488865
0.0379809
0.0525889
0.0379802
0.0488871
0.0672263
0.0793868
0.0439702
0.0368072
0.0512478
0.0368054
0.0439716
0.0399058
0.0346437
0.0480032
0.034641
0.0399072
0.0366201
0.032332
0.0445094
0.0323287
0.0366214
0.0337743
0.0300964
0.0411452
0.0300927
0.0337753
0.0311931
0.0279786
0.0379893
0.0279748
0.031194
0.0288102
0.0259847
0.0350477
0.0259807
0.028811
0.0265977
0.0241117
0.032312
0.0241076
0.0265982
0.0245403
0.022355
0.0297704
0.0223508
0.0245407
0.022629
0.0207106
0.0274131
0.0207064
0.0226292
0.0208383
0.019158
0.0252089
0.0191538
0.0208383
0.0192638
0.0177869
0.0232742
0.0177828
0.0192637
0.016975
0.0157502
0.0204761
0.0157461
0.0169748
-1.68662e-17
-1.39512e-17
-9.29736e-18
-4.96748e-18
-3.28933e-18
-4.96533e-18
-9.29675e-18
-1.39514e-17
-1.68659e-17
-4.26257e-16
-2.91937e-16
-1.56355e-16
-6.51345e-17
-3.70224e-17
-6.51281e-17
-1.56358e-16
-2.91942e-16
-4.2625e-16
-1.04514e-14
-6.14697e-15
-2.75216e-15
-9.38231e-16
-4.85338e-16
-9.3826e-16
-2.75228e-15
-6.14705e-15
-1.04513e-14
-2.35875e-13
-1.25536e-13
-4.91345e-14
-1.44017e-14
-7.09241e-15
-1.44028e-14
-4.91366e-14
-1.25537e-13
-2.35872e-13
-4.67522e-12
-2.35856e-12
-8.50703e-13
-2.25684e-13
-1.08637e-13
-2.25702e-13
-8.50735e-13
-2.35857e-12
-4.67517e-12
-7.6948e-11
-3.81601e-11
-1.33933e-11
-3.37315e-12
-1.60637e-12
-3.37341e-12
-1.33937e-11
-3.81602e-11
-7.69473e-11
-9.4892e-10
-4.80021e-10
-1.7496e-10
-4.40176e-11
-2.09434e-11
-4.40208e-11
-1.74964e-10
-4.80021e-10
-9.48912e-10
-6.73347e-09
-3.73939e-09
-1.61415e-09
-4.40646e-10
-2.14361e-10
-4.40673e-10
-1.61417e-09
-3.73937e-09
-6.73343e-09
-3.1131e-10
-4.81141e-09
-6.7545e-09
-2.60175e-09
-1.39952e-09
-2.60186e-09
-6.75447e-09
-4.81126e-09
-3.11301e-10
-5.67729e-08
1.0032e-08
-1.32789e-09
-4.20378e-09
-3.52025e-09
-4.20369e-09
-1.3277e-09
1.00318e-08
-5.67712e-08
-8.98141e-06
-4.41575e-06
-1.03885e-06
-1.21388e-07
-3.41031e-08
-1.21396e-07
-1.03888e-06
-4.41576e-06
-8.98138e-06
0.000100841
3.83042e-05
3.32895e-07
-1.63342e-06
-7.65316e-07
-1.63347e-06
3.33102e-07
3.83044e-05
0.00010084
-0.000963716
-0.000327397
1.84166e-05
1.25486e-05
2.51431e-06
1.25492e-05
1.84154e-05
-0.000327398
-0.000963713
0.00664088
0.0018256
-0.000471239
-0.000120801
-1.37353e-05
-0.000120807
-0.000471236
0.0018256
0.00664086
-0.0456762
-0.0104699
0.00334691
0.000450313
-8.54437e-05
0.000450336
0.00334691
-0.0104699
-0.0456761
0.403883
0.0371931
-0.0233572
-0.00126981
0.00052245
-0.00126987
-0.0233573
0.0371931
0.403882
0.998756
0.587579
0.0765272
-0.00867144
-0.0020118
-0.00867156
0.0765276
0.587578
0.998756
1.02547
0.870658
0.252528
-0.002331
-0.00757745
-0.00233093
0.252528
0.870658
1.02547
1.03427
0.946643
0.348513
0.0097546
-0.0110153
0.00975507
0.348514
0.946642
1.03427
1.03487
0.9462
0.377888
0.0197283
-0.0110281
0.0197291
0.377889
0.946199
1.03487
1.02304
0.908623
0.369538
0.0261634
-0.00870835
0.0261642
0.36954
0.908623
1.02304
0.989743
0.846296
0.342059
0.0296833
-0.00542628
0.0296841
0.342061
0.846295
0.989742
0.931332
0.767059
0.305792
0.0310063
-0.00210798
0.031007
0.305794
0.767058
0.93133
0.851753
0.678282
0.266548
0.0306797
0.000685195
0.0306802
0.266549
0.678282
0.851752
0.75883
0.586437
0.227427
0.0291189
0.00279275
0.0291192
0.227428
0.586437
0.758829
0.660606
0.496352
0.189867
0.0265983
0.00422001
0.0265985
0.189868
0.496352
0.660606
0.563664
0.410883
0.154212
0.0232696
0.00503012
0.0232696
0.154212
0.410883
0.563663
0.472743
0.330973
0.119879
0.0191434
0.00529108
0.0191434
0.119879
0.330973
0.472743
0.390718
0.255554
0.0852704
0.014081
0.00503072
0.0140809
0.0852705
0.255554
0.390718
0.318823
0.182835
0.0474127
0.00792836
0.00413775
0.00792815
0.0474127
0.182835
0.318823
0.251972
0.099053
0.00197534
0.00192995
0.00220195
0.00192978
0.00197513
0.099053
0.251972
0.210996
0.075045
0.0750445
0.210996
0.18161
0.105757
0.0756127
0.0482067
0.0333904
0.0482069
0.075613
0.105756
0.18161
0.123032
0.108028
0.0856533
0.052589
0.0349304
0.0525901
0.085654
0.108028
0.123033
0.0807387
0.051248
0.0343794
0.0512511
0.0807406
0.0741105
0.0480034
0.0327442
0.048008
0.0741129
0.0679676
0.0445096
0.0307932
0.0445136
0.06797
0.0623846
0.0411453
0.0288141
0.0411489
0.0623868
0.0572697
0.0379895
0.0269001
0.0379927
0.0572717
0.0525574
0.0350479
0.0250776
0.0350509
0.0525592
0.0482077
0.0323121
0.0233525
0.032315
0.0482093
0.044192
0.0297706
0.0217241
0.0297732
0.0441934
0.0404887
0.0274132
0.020191
0.0274158
0.04049
0.0370481
0.025209
0.0187346
0.0252114
0.0370492
0.0340373
0.0232743
0.017445
0.0232766
0.0340383
0.0298072
0.0204762
0.0154803
0.0204785
0.0298081
-5.85647e-18
-5.58437e-18
-4.46e-18
-3.83966e-18
-4.96534e-18
-3.83831e-18
-4.4596e-18
-5.58456e-18
-5.85645e-18
-1.64319e-16
-1.2474e-16
-7.659e-17
-5.2676e-17
-6.51284e-17
-5.26705e-17
-7.65899e-17
-1.24744e-16
-1.64319e-16
-4.50929e-15
-2.75229e-15
-1.34367e-15
-7.63172e-16
-9.38267e-16
-7.6316e-16
-1.34371e-15
-2.75236e-15
-4.50928e-15
-1.10853e-13
-5.82015e-14
-2.36839e-14
-1.15199e-14
-1.44029e-14
-1.15201e-14
-2.36849e-14
-5.82026e-14
-1.10852e-13
-2.29341e-12
-1.11026e-12
-4.0133e-13
-1.7556e-13
-2.25704e-13
-1.75565e-13
-4.01347e-13
-1.11028e-12
-2.2934e-12
-3.89355e-11
-1.81722e-11
-6.20103e-12
-2.55116e-12
-3.37344e-12
-2.55124e-12
-6.20126e-12
-1.81724e-11
-3.89354e-11
-5.03284e-10
-2.35029e-10
-8.06943e-11
-3.26033e-11
-4.40211e-11
-3.26042e-11
-8.06968e-11
-2.3503e-10
-5.03283e-10
-4.06938e-09
-2.0198e-09
-7.74333e-10
-3.26091e-10
-4.40675e-10
-3.261e-10
-7.7435e-10
-2.0198e-09
-4.06937e-09
-8.2857e-09
-6.30041e-09
-4.06223e-09
-2.05984e-09
-2.60187e-09
-2.05989e-09
-4.06226e-09
-6.30033e-09
-8.28559e-09
-1.2242e-08
1.53415e-09
-6.15363e-09
-5.22917e-09
-4.20368e-09
-5.22925e-09
-6.15352e-09
1.53421e-09
-1.22417e-08
-4.21408e-06
-1.5904e-06
-3.19226e-07
-6.94341e-08
-1.21397e-07
-6.94355e-08
-3.19237e-07
-1.59042e-06
-4.21409e-06
3.54546e-05
5.61938e-06
-2.14418e-06
-1.20476e-06
-1.63347e-06
-1.20479e-06
-2.14414e-06
5.61961e-06
3.54548e-05
-0.000328842
-2.62745e-05
2.175e-05
5.56905e-06
1.25492e-05
5.5692e-06
2.17501e-05
-2.62762e-05
-0.000328844
0.00195925
-0.000214116
-0.000264566
-4.50449e-05
-0.000120806
-4.50458e-05
-0.000264569
-0.000214107
0.00195926
-0.0122029
0.0021045
0.00133332
-5.85607e-06
0.000450334
-5.85533e-06
0.00133334
0.00210448
-0.0122029
0.0486984
-0.0244333
-0.00633699
0.000472545
-0.00126986
0.000472552
-0.00633707
-0.0244333
0.0486983
0.67825
0.217933
0.00312979
-0.00517392
-0.00867154
-0.00517397
0.00312989
0.217933
0.678249
0.948554
0.496224
0.059752
-0.0103085
-0.00233097
-0.0103086
0.0597526
0.496224
0.948554
1.02279
0.626746
0.110023
-0.00928808
0.00975491
-0.00928814
0.110024
0.626747
1.02279
1.02742
0.662745
0.138103
-0.00407606
0.0197288
-0.00407612
0.138105
0.662745
1.02742
0.996662
0.648031
0.148511
0.00254134
0.0261638
0.00254132
0.148513
0.648032
0.996661
0.93881
0.605546
0.147753
0.00877223
0.0296836
0.0087722
0.147755
0.605547
0.938809
0.859948
0.548174
0.140248
0.0137198
0.0310064
0.0137196
0.14025
0.548175
0.859947
0.767963
0.484042
0.128925
0.0170458
0.0306796
0.0170456
0.128926
0.484042
0.767962
0.670753
0.418534
0.115502
0.0188151
0.0291186
0.0188148
0.115503
0.418535
0.670752
0.574724
0.355021
0.100998
0.0192012
0.0265979
0.0192009
0.100999
0.355022
0.574723
0.484408
0.2953
0.0859376
0.0183788
0.0232691
0.0183783
0.0859379
0.2953
0.484408
0.402613
0.23982
0.0703283
0.0164276
0.0191429
0.0164271
0.0703282
0.23982
0.402613
0.330541
0.187558
0.0534167
0.0132312
0.0140805
0.0132307
0.0534164
0.187558
0.330542
0.268036
0.136848
0.0328755
0.00833595
0.00792788
0.00833546
0.0328749
0.136848
0.268036
0.210635
0.0762522
0.00280035
0.00236762
0.00192968
0.00236727
0.00279971
0.0762518
0.210636
0.172662
0.0587193
0.0587186
0.172662
0.138718
0.0787465
0.0481168
0.0358912
0.0482069
0.0358912
0.0481168
0.0787463
0.138718
0.0793887
0.0672279
0.0488875
0.0379809
0.0525901
0.037982
0.048888
0.0672281
0.0793891
0.0439703
0.0368062
0.0512512
0.03681
0.0439722
0.0399046
0.0346417
0.0480081
0.0346477
0.0399074
0.0366184
0.0323294
0.0445137
0.0323355
0.0366215
0.0337722
0.0300933
0.041149
0.0300994
0.0337754
0.0311909
0.0279753
0.0379928
0.0279812
0.0311941
0.028808
0.0259812
0.035051
0.025987
0.0288111
0.0265953
0.0241081
0.032315
0.0241137
0.0265983
0.0245379
0.0223513
0.0297733
0.0223567
0.0245408
0.0226265
0.0207068
0.0274158
0.020712
0.0226294
0.0208357
0.0191541
0.0252115
0.0191592
0.0208385
0.0192612
0.0177831
0.0232767
0.0177879
0.0192639
0.0169723
0.0157464
0.0204785
0.015751
0.0169749
-2.29353e-18
-2.11307e-18
-2.4162e-18
-4.46018e-18
-9.29674e-18
-4.45962e-18
-2.41608e-18
-2.11315e-18
-2.29352e-18
-5.46935e-17
-4.27078e-17
-4.14255e-17
-7.65938e-17
-1.56358e-16
-7.65903e-17
-4.14244e-17
-4.27091e-17
-5.46936e-17
-1.21161e-15
-8.46485e-16
-7.06142e-16
-1.34376e-15
-2.75228e-15
-1.34372e-15
-7.06136e-16
-8.46502e-16
-1.21161e-15
-3.46119e-14
-1.86554e-14
-1.25699e-14
-2.36856e-14
-4.91367e-14
-2.3685e-14
-1.25699e-14
-1.86557e-14
-3.4612e-14
-7.87024e-13
-3.66894e-13
-2.10462e-13
-4.01358e-13
-8.50737e-13
-4.01349e-13
-2.10462e-13
-3.669e-13
-7.87026e-13
-1.45122e-11
-6.21855e-12
-3.19386e-12
-6.20142e-12
-1.33938e-11
-6.20128e-12
-3.19387e-12
-6.21863e-12
-1.45122e-11
-2.10259e-10
-8.58031e-11
-4.12025e-11
-8.06985e-11
-1.74964e-10
-8.0697e-11
-4.12026e-11
-8.5804e-11
-2.1026e-10
-2.14613e-09
-8.59467e-10
-4.04229e-10
-7.74362e-10
-1.61418e-09
-7.74351e-10
-4.04229e-10
-8.59473e-10
-2.14613e-09
-1.12577e-08
-4.68213e-09
-2.39574e-09
-4.06227e-09
-6.75447e-09
-4.06226e-09
-2.39575e-09
-4.68213e-09
-1.12577e-08
-9.87886e-09
-4.56291e-09
-5.0814e-09
-6.15338e-09
-1.32762e-09
-6.1535e-09
-5.08142e-09
-4.56274e-09
-9.87866e-09
-9.77895e-07
-2.92393e-07
-9.57947e-08
-3.19248e-07
-1.03888e-06
-3.19237e-07
-9.57941e-08
-2.92398e-07
-9.77904e-07
-4.08352e-06
-3.1161e-06
-1.43721e-06
-2.1441e-06
3.33087e-07
-2.14415e-06
-1.43721e-06
-3.11608e-06
-4.08342e-06
4.71512e-05
3.00213e-05
8.64652e-06
2.17501e-05
1.84156e-05
2.17501e-05
8.64649e-06
3.00214e-05
4.71507e-05
-0.000663441
-0.000312254
-7.3616e-05
-0.000264571
-0.000471236
-0.000264568
-7.36156e-05
-0.000312255
-0.000663438
0.00414975
0.00152916
0.000144423
0.00133335
0.00334691
0.00133334
0.000144422
0.00152918
0.00414974
-0.0290946
-0.00721594
-0.000236713
-0.00633713
-0.0233573
-0.00633704
-0.000236709
-0.00721599
-0.0290946
0.11563
0.00772404
-0.00283485
0.00312999
0.0765274
0.00312984
-0.00283485
0.00772413
0.11563
0.333035
0.0720083
-0.000445138
0.0597529
0.252528
0.0597523
-0.000445126
0.0720087
0.333036
0.450574
0.127916
0.00769027
0.110025
0.348513
0.110024
0.00769019
0.127916
0.450574
0.490411
0.159588
0.0179603
0.138105
0.377889
0.138104
0.0179602
0.159588
0.490411
0.485886
0.171996
0.0277273
0.148513
0.369539
0.148512
0.0277272
0.171997
0.485886
0.457046
0.17195
0.0355584
0.147755
0.34206
0.147753
0.0355585
0.171951
0.457046
0.415414
0.16424
0.0408943
0.140249
0.305793
0.140248
0.0408944
0.164241
0.415414
0.368191
0.15204
0.0437166
0.128925
0.266548
0.128924
0.0437167
0.15204
0.368191
0.320112
0.137444
0.0443243
0.115502
0.227427
0.115501
0.0443244
0.137444
0.320112
0.274215
0.121903
0.0431699
0.100997
0.189866
0.100997
0.0431698
0.121904
0.274215
0.232339
0.106418
0.0407294
0.0859364
0.154211
0.085936
0.0407292
0.106419
0.232339
0.195393
0.0915793
0.0373819
0.0703268
0.119878
0.0703266
0.0373816
0.0915791
0.195393
0.163376
0.0773784
0.033152
0.0534152
0.0852696
0.053415
0.0331516
0.0773779
0.163376
0.135321
0.0635537
0.0268385
0.0328742
0.047412
0.032874
0.0268379
0.063553
0.135321
0.108444
0.0414239
0.00652043
0.00279972
0.00197481
0.00279944
0.00651969
0.0414229
0.108444
0.0853848
0.0339554
0.033954
0.0853846
0.0587872
0.0340442
0.023779
0.0481166
0.0756129
0.048116
0.0237782
0.0340432
0.0587869
0.0236093
0.0173143
0.0164839
0.048888
0.0856542
0.0488873
0.0164831
0.0173138
0.023609
0.0135348
0.0439725
0.0807408
0.0439715
0.0135339
0.0123795
0.039908
0.0741131
0.0399069
0.0123788
0.0115708
0.0366222
0.0679701
0.036621
0.0115702
0.010894
0.033776
0.0623869
0.033775
0.0108936
0.0102647
0.0311947
0.0572718
0.0311937
0.0102643
0.00966589
0.0288116
0.0525593
0.0288107
0.00966567
0.00909251
0.0265987
0.0482094
0.026598
0.00909239
0.0085433
0.0245412
0.0441935
0.0245405
0.00854325
0.00801849
0.0226297
0.0404901
0.0226291
0.00801852
0.00751074
0.0208388
0.0370493
0.0208382
0.00751082
0.00705874
0.0192641
0.0340384
0.0192637
0.00705887
0.00629267
0.0169751
0.0298082
0.0169747
0.00629285
-8.35022e-19
-9.63508e-19
-2.11317e-18
-5.58471e-18
-1.39514e-17
-5.58458e-18
-2.11316e-18
-9.63525e-19
-8.35013e-19
-1.42466e-17
-1.65977e-17
-4.27104e-17
-1.24747e-16
-2.91941e-16
-1.24744e-16
-4.27092e-17
-1.65977e-17
-1.42465e-17
-2.89881e-16
-3.26507e-16
-8.46532e-16
-2.75243e-15
-6.14705e-15
-2.75237e-15
-8.46505e-16
-3.26504e-16
-2.89881e-16
-8.52684e-15
-7.52366e-15
-1.86564e-14
-5.82042e-14
-1.25537e-13
-5.82028e-14
-1.86558e-14
-7.52358e-15
-8.52685e-15
-2.00842e-13
-1.51481e-13
-3.66913e-13
-1.11031e-12
-2.35857e-12
-1.11028e-12
-3.66901e-13
-1.5148e-13
-2.00842e-13
-3.84517e-12
-2.61113e-12
-6.21883e-12
-1.81729e-11
-3.81602e-11
-1.81725e-11
-6.21864e-12
-2.6111e-12
-3.84518e-12
-5.9011e-11
-3.70709e-11
-8.58064e-11
-2.35035e-10
-4.80021e-10
-2.35031e-10
-8.58041e-11
-3.70704e-11
-5.90112e-11
-6.74516e-10
-3.97308e-10
-8.59492e-10
-2.01982e-09
-3.73938e-09
-2.0198e-09
-8.59474e-10
-3.97303e-10
-6.74519e-10
-4.69906e-09
-2.62038e-09
-4.68217e-09
-6.30026e-09
-4.81127e-09
-6.30033e-09
-4.68213e-09
-2.62036e-09
-4.69907e-09
-9.89574e-09
-5.52164e-09
-4.56268e-09
1.53419e-09
1.00322e-08
1.53431e-09
-4.56273e-09
-5.52159e-09
-9.89569e-09
-1.18366e-07
-6.19355e-08
-2.92412e-07
-1.59046e-06
-4.41576e-06
-1.59042e-06
-2.92398e-07
-6.19341e-08
-1.18368e-07
-3.41679e-06
-1.76729e-06
-3.11605e-06
5.62002e-06
3.83044e-05
5.6196e-06
-3.11608e-06
-1.76727e-06
-3.4168e-06
2.35928e-05
9.38329e-06
3.00214e-05
-2.6279e-05
-0.000327397
-2.62759e-05
3.00214e-05
9.38318e-06
2.3593e-05
-0.000209652
-6.70973e-05
-0.000312258
-0.000214095
0.0018256
-0.00021411
-0.000312255
-6.70964e-05
-0.000209653
0.000803871
5.58351e-05
0.00152919
0.00210444
-0.0104699
0.00210449
0.00152917
5.58337e-05
0.000803876
-0.00274016
0.00031079
-0.00721606
-0.0244332
0.0371929
-0.0244333
-0.00721596
0.000310792
-0.00274017
-0.0106032
-0.00522893
0.0077243
0.217934
0.587578
0.217933
0.00772407
-0.00522889
-0.0106032
0.00604331
-0.00886496
0.0720092
0.496225
0.870658
0.496224
0.0720084
-0.0088649
0.00604336
0.0290315
-0.0056309
0.127918
0.626748
0.946642
0.626746
0.127916
-0.00563094
0.0290316
0.0457974
0.00180409
0.15959
0.662747
0.9462
0.662744
0.159588
0.001804
0.0457976
0.0552341
0.0102906
0.171998
0.648034
0.908623
0.648031
0.171996
0.0102906
0.0552344
0.0592597
0.0178748
0.171952
0.605548
0.846296
0.605545
0.17195
0.0178749
0.05926
0.0596266
0.0236418
0.164242
0.548176
0.767059
0.548173
0.16424
0.0236419
0.0596269
0.0575856
0.0273764
0.15204
0.484043
0.678282
0.48404
0.152039
0.0273765
0.0575859
0.054051
0.0292612
0.137444
0.418534
0.586437
0.418532
0.137442
0.0292613
0.0540512
0.0497199
0.0296689
0.121903
0.355021
0.496352
0.355019
0.121902
0.029669
0.0497199
0.0451329
0.0290512
0.106417
0.295299
0.410883
0.295298
0.106417
0.0290512
0.0451327
0.0406898
0.027893
0.0915777
0.239819
0.330973
0.239818
0.0915774
0.0278929
0.0406895
0.0366017
0.0266595
0.0773765
0.187557
0.255554
0.187556
0.0773763
0.0266592
0.0366013
0.0327891
0.0258795
0.0635519
0.136846
0.182835
0.136846