/*--------------------------------*- C++ -*----------------------------------*\
  =========                 |
  \\      /  F ield         | OpenFOAM: The Open Source CFD Toolbox
   \\    /   O peration     | Website:  https://openfoam.org
    \\  /    A nd           | Version:  6
     \\/     M anipulation  |
\*---------------------------------------------------------------------------*/
FoamFile
{
    version     2.0;
    format      ascii;
    class       volScalarField;
    location    "0.2";
    object      T;
}
// * * * * * * * * * * * * * * * * * * * * * * * * * * * * * * * * * * * * * //

dimensions      [0 0 0 1 0 0 0];

internalField   nonuniform List<scalar> 
3029
(
293.767
294.003
292.908
302.314
406.505
302.314
292.908
294.003
293.767
293.959
294.277
293.437
303.598
413.571
303.598
293.437
294.276
293.959
294.975
295.782
292.93
317.105
442.718
317.104
292.93
295.781
294.975
299.812
302.768
303.052
352.16
489.181
352.158
303.051
302.767
299.812
319.79
327.936
339.344
411.851
546.289
411.848
339.342
327.934
319.79
365.252
379.434
403.872
487.78
606.383
487.776
403.869
379.431
365.252
434.262
452.236
485.074
567.106
663.041
567.102
485.07
452.232
434.261
514.903
533.371
568.141
639.57
712.213
639.565
568.136
533.365
514.902
594.281
610.771
642.633
699.977
752.296
699.972
642.627
610.764
594.278
663.887
677.261
703.815
747.205
783.43
747.2
703.808
677.252
663.884
720.186
730.318
751.046
782.437
806.71
782.432
751.039
730.309
720.181
763.086
770.407
785.864
807.769
823.523
807.764
785.857
770.397
763.081
794.277
799.41
810.599
825.686
835.941
825.682
810.591
799.399
794.271
816.076
819.768
828.033
836.853
840.798
836.849
828.025
819.757
816.07
830.814
832.981
837.382
851.706
870.698
851.702
837.374
832.97
830.807
840.042
843.553
860.31
830.138
670.707
830.136
860.304
843.543
840.035
847.562
852.925
799.415
546.21
400.529
546.21
799.411
852.915
847.554
854.322
848.952
702.864
423.73
388.467
423.73
702.861
848.943
854.314
858.684
840.615
650.3
389.93
384.443
389.931
650.299
840.608
858.677
860.611
834.284
632.611
387.771
384.149
387.771
632.61
834.277
860.603
860.882
830.847
634.985
401.798
389.547
401.798
634.984
830.84
860.874
860.273
829.609
648.384
428.244
404.785
428.244
648.384
829.603
860.266
859.334
829.866
667.582
464.326
431.527
464.327
667.581
829.861
859.328
858.386
831.099
689.3
506.429
467.969
506.429
689.299
831.094
858.38
857.587
832.926
711.382
550.933
510.527
550.934
711.381
832.922
857.582
856.994
835.053
732.444
594.902
555.513
594.902
732.443
835.05
856.989
856.607
837.252
751.651
636.257
599.914
636.257
751.65
837.249
856.602
856.387
839.352
768.589
673.712
641.557
673.712
768.588
839.35
856.383
856.268
841.266
783.262
706.715
679.127
706.715
783.261
841.264
856.264
856.173
843.038
796.115
735.338
712.055
735.337
796.114
843.037
856.17
856.165
845.124
808.425
761.623
742.674
761.623
808.425
845.125
856.162
856.508
848.136
818.985
779.012
761.441
779.012
818.986
848.137
856.504
857.175
852.342
831.164
794.557
774.901
794.557
831.166
852.344
857.17
857.995
856.84
847.275
821.727
801.731
821.729
847.278
856.84
857.991
294.003
298.674
299.193
340.528
472.047
340.527
299.193
298.674
294.003
294.277
299.092
299.847
346.619
483.085
346.617
299.846
299.092
294.276
295.782
303.189
310.173
373.133
513.87
373.13
310.172
303.188
295.781
302.768
316.888
338.483
421.771
558.977
421.768
338.48
316.886
302.767
327.936
351.831
391.09
487.498
610.824
487.494
391.086
351.828
327.934
379.434
410.97
462.639
559.841
662.338
559.837
462.634
410.966
379.431
452.236
486.176
541.363
628.93
708.719
628.925
541.357
486.17
452.232
533.371
564.906
616.168
688.626
747.615
688.62
616.161
564.898
533.365
610.771
637.169
680.406
736.678
778.559
736.672
680.398
637.16
610.763
677.26
697.734
731.764
773.41
802.19
773.404
731.756
697.724
677.251
730.318
745.302
770.736
800.411
819.653
800.405
770.727
745.29
730.307
770.407
780.887
799.153
819.643
832.174
819.638
799.144
780.875
770.396
799.409
806.49
819.197
833.012
841.133
833.006
819.187
806.477
799.397
819.767
824.345
833.121
842.169
846.179
842.164
833.112
824.332
819.755
832.981
836.3
841.477
847.146
855.841
847.141
841.468
836.287
832.968
843.552
844.009
851.45
863.353
837.131
863.349
851.442
843.997
843.54
852.924
851.493
848.476
755.444
587.698
755.442
848.469
851.481
852.913
848.951
856.244
821.446
629.699
459.069
629.698
821.44
856.233
848.941
840.615
856.688
797.191
570.549
424.47
570.549
797.186
856.677
840.605
834.284
854.523
783.463
554.288
424.697
554.288
783.459
854.514
834.275
830.846
851.475
778.273
561.131
441.908
561.131
778.269
851.467
830.838
829.609
848.586
778.626
580.649
470.453
580.65
778.622
848.578
829.601
829.866
846.356
782.387
606.964
506.746
606.964
782.384
846.349
829.859
831.099
844.936
788.135
636.362
547.409
636.362
788.132
844.93
831.093
832.927
844.276
794.931
666.381
589.478
666.381
794.929
844.271
832.921
835.054
844.23
802.125
695.48
630.74
695.48
802.122
844.226
835.049
837.253
844.61
809.268
722.839
669.888
722.838
809.265
844.606
837.249
839.352
845.205
816.097
748.251
706.489
748.25
816.095
845.202
839.35
841.267
845.812
822.622
772.187
741.032
772.186
822.62
845.81
841.265
843.038
846.195
828.965
795.41
774.338
795.41
828.964
846.195
843.038
845.125
847.12
839.108
823.162
812.713
823.162
839.108
847.121
845.126
848.137
848.572
842.53
831.192
823.709
831.193
842.531
848.574
848.138
852.343
851.913
842.49
822.02
809.643
822.021
842.491
851.916
852.344
856.84
856.968
850.155
827.296
808.604
827.298
850.158
856.97
856.842
292.908
299.193
335.752
450.865
598.766
450.862
335.75
299.193
292.908
293.437
299.847
341.955
464.871
611.476
464.868
341.953
299.846
293.437
292.93
310.173
369.397
501.417
638.396
501.413
369.394
310.172
292.93
303.051
338.482
419.002
553.701
673.386
553.697
418.998
338.48
303.05
339.344
391.089
485.131
612.025
710.094
612.02
485.126
391.085
339.342
403.871
462.638
557.575
668.003
744.033
667.998
557.568
462.633
403.868
485.073
541.362
626.857
716.624
772.936
716.619
626.849
541.355
485.068
568.14
616.167
686.901
755.976
796.175
755.971
686.893
616.159
568.134
642.632
680.405
735.337
786.231
814.084
786.226
735.328
680.395
642.624
703.813
731.762
772.391
808.609
827.437
808.603
772.382
731.752
703.804
751.044
770.735
799.623
824.663
837.125
824.658
799.614
770.724
751.035
785.862
799.151
819.007
835.891
843.984
835.886
818.999
799.14
785.852
810.597
819.195
832.43
843.553
848.72
843.548
832.422
819.183
810.586
828.031
833.119
841.535
848.805
852.142
848.801
841.526
833.108
828.02
837.38
841.476
847.391
851.397
852.462
851.393
847.383
841.465
837.369
860.308
851.449
851.349
856.98
865.927
856.975
851.341
851.438
860.298
799.414
848.475
854.877
853.979
821.161
853.976
854.87
848.465
799.406
702.863
821.444
855.26
828.996
741.35
828.993
855.253
821.436
702.857
650.3
797.191
852.491
806.568
697.805
806.566
852.484
797.183
650.295
632.61
783.463
848.426
794.076
684.57
794.074
848.42
783.455
632.606
634.985
778.273
844.395
789.552
688.529
789.55
844.389
778.266
634.981
648.385
778.626
841.119
790.065
701.207
790.063
841.113
778.62
648.381
667.583
782.388
838.894
793.617
717.882
793.616
838.889
782.382
667.579
689.301
788.136
837.755
798.883
735.903
798.882
837.751
788.131
689.298
711.383
794.933
837.584
805.087
753.854
805.085
837.58
794.928
711.38
732.446
802.126
838.186
811.767
771.08
811.766
838.183
802.123
732.443
751.653
809.27
839.354
818.691
787.427
818.689
839.351
809.267
751.651
768.591
816.1
840.921
825.856
803.162
825.855
840.918
816.097
768.59
783.265
822.624
842.88
833.612
819.021
833.611
842.878
822.623
783.264
796.118
828.968
845.786
843.027
836.365
843.026
845.785
828.967
796.117
808.428
839.111
855.104
856.807
857.181
856.807
855.105
839.112
808.428
818.988
842.533
842.535
818.99
831.167
842.492
847.189
836.045
823.45
836.047
847.192
842.495
831.169
847.277
850.157
850.533
835.693
818.852
835.695
850.536
850.16
847.281
851.885
837.946
821.104
837.948
851.888
852.415
839.808
824.14
839.811
852.418
852.786
841.314
826.955
841.316
852.789
853.097
842.618
829.513
842.621
853.1
853.386
843.801
831.856
843.803
853.388
853.66
844.892
834.015
844.895
853.663
853.923
845.906
836.007
845.909
853.926
854.175
846.848
837.847
846.851
854.177
854.416
847.724
839.543
847.727
854.418
854.648
848.544
841.119
848.547
854.651
854.856
849.266
842.499
849.268
854.858
855.207
850.315
844.437
850.317
855.209
302.314
340.528
450.864
624.532
744.643
624.527
450.861
340.526
302.314
303.598
346.618
464.87
638.551
752.24
638.546
464.866
346.616
303.598
317.105
373.132
501.416
666.541
766.017
666.536
501.41
373.129
317.104
352.16
421.77
553.7
701.055
782.333
701.051
553.693
421.766
352.158
411.85
487.496
612.023
735.474
798.352
735.47
612.016
487.491
411.847
487.779
559.839
668.001
765.886
812.502
765.882
667.993
559.832
487.774
567.104
628.927
716.622
790.787
824.205
790.782
716.613
628.919
567.099
639.568
688.622
755.974
810.137
833.459
810.133
755.965
688.614
639.561
699.974
736.674
786.229
824.615
840.534
824.61
786.22
736.665
699.967
747.202
773.405
808.606
835.135
845.799
835.131
808.598
773.395
747.194
782.434
800.407
824.661
842.601
849.628
842.597
824.653
800.397
782.425
807.765
819.639
835.889
847.79
852.354
847.786
835.881
819.629
807.756
825.683
833.008
843.551
851.319
854.246
851.316
843.544
832.998
825.674
836.85
842.166
848.803
853.695
855.599
853.692
848.796
842.156
836.84
851.703
847.143
851.395
855.201
856.188
855.198
851.389
847.134
851.694
830.136
863.35
856.978
855.925
857.492
855.922
856.971
863.341
830.128
546.21
755.442
853.978
859.064
861.166
859.06
853.971
755.435
546.207
423.73
629.698
828.995
861.788
858.484
861.785
828.989
629.694
423.729
389.931
570.548
806.568
861.605
853.133
861.601
806.562
570.545
389.931
387.771
554.288
794.076
859.432
848.704
859.429
794.07
554.285
387.771
401.798
561.132
789.552
856.559
845.86
856.556
789.546
561.129
401.798
428.244
580.65
790.065
853.82
844.323
853.817
790.06
580.647
428.244
464.327
606.966
793.618
851.636
843.771
851.633
793.614
606.962
464.326
506.43
636.364
798.885
850.17
843.959
850.167
798.881
636.361
506.429
550.935
666.384
805.088
849.4
844.701
849.397
805.085
666.381
550.934
594.904
695.484
811.77
849.25
845.874
849.248
811.766
695.481
594.902
636.26
722.843
818.693
849.646
847.412
849.644
818.69
722.84
636.259
673.715
748.255
825.859
850.551
849.31
850.55
825.857
748.253
673.714
706.719
772.191
833.615
852.023
851.634
852.022
833.614
772.19
706.718
735.342
795.415
843.029
854.269
854.455
854.269
843.029
795.415
735.341
761.627
823.166
856.808
857.005
857.204
857.006
856.809
823.167
761.628
779.017
831.196
831.199
779.018
794.562
822.025
836.049
841.647
836.006
841.651
836.053
822.027
794.563
821.731
827.3
835.697
840.69
834
840.694
835.7
827.303
821.735
837.949
841.229
834.615
841.233
837.952
839.811
842.221
836.102
842.225
839.813
841.317
843.281
837.703
843.285
841.319
842.621
844.306
839.245
844.31
842.623
843.804
845.276
840.691
845.28
843.805
844.895
846.189
842.039
846.194
844.897
845.909
847.048
843.292
847.052
845.911
846.851
847.852
844.456
847.856
846.853
847.726
848.606
845.536
848.61
847.728
848.547
849.317
846.546
849.321
848.549
849.268
849.945
847.432
849.949
849.27
850.317
850.878
848.714
850.882
850.319
406.504
472.044
598.762
744.639
819.36
744.635
598.758
472.042
406.504
413.57
483.082
611.472
752.237
821.706
752.233
611.468
483.08
413.569
442.717
513.867
638.391
766.013
825.873
766.009
638.386
513.864
442.715
489.178
558.973
673.381
782.329
830.781
782.326
673.377
558.969
489.176
546.286
610.82
710.089
798.349
835.715
798.346
710.084
610.816
546.283
606.379
662.333
744.027
812.499
840.268
812.494
744.022
662.328
606.375
663.036
708.713
772.93
824.203
844.249
824.197
772.923
708.708
663.031
712.208
747.609
796.169
833.456
847.591
833.45
796.161
747.603
712.203
752.29
778.552
814.079
840.531
850.302
840.526
814.071
778.545
752.284
783.425
802.183
827.433
845.797
852.434
845.791
827.424
802.176
783.419
806.704
819.647
837.121
849.626
854.066
849.621
837.113
819.639
806.698
823.517
832.169
843.98
852.352
855.282
852.348
843.972
832.16
823.511
835.936
841.128
848.717
854.245
856.165
854.241
848.709
841.12
835.929
840.794
846.174
852.139
855.598
856.799
855.594
852.132
846.166
840.787
870.694
855.836
852.46
856.187
857.264
856.184
852.453
855.829
870.687
670.705
837.127
865.925
857.491
857.269
857.488
865.919
837.12
670.701
400.529
587.697
821.159
861.165
858.597
861.162
821.154
587.694
400.529
388.467
459.069
741.349
858.484
861.249
858.48
741.344
459.067
388.467
384.443
424.47
697.804
853.132
862.901
853.129
697.8
424.469
384.443
384.149
424.697
684.57
848.704
862.968
848.701
684.565
424.696
384.149
389.547
441.908
688.53
845.86
861.954
845.857
688.525
441.907
389.547
404.785
470.454
701.207
844.323
860.487
844.32
701.203
470.452
404.784
431.528
506.747
717.884
843.771
858.995
843.769
717.88
506.745
431.527
467.97
547.41
735.905
843.96
857.735
843.957
735.901
547.408
467.969
510.528
589.48
753.856
844.702
856.785
844.7
753.853
589.478
510.527
555.515
630.743
771.083
845.875
856.141
845.874
771.08
630.741
555.514
599.916
669.892
787.43
847.413
855.777
847.412
787.428
669.89
599.915
641.56
706.494
803.166
849.312
855.662
849.311
803.164
706.492
641.56
679.13
741.038
819.025
851.636
855.783
851.635
819.024
741.037
679.13
712.06
774.344
836.369
854.456
856.193
854.456
836.369
774.344
712.06
742.679
812.718
857.183
857.205
857.08
857.206
857.185
812.719
742.679
761.447
823.715
823.717
761.448
774.907
809.649
823.456
836.012
842.805
836.016
823.459
809.651
774.908
801.738
808.611
818.858
834.005
842.099
834.008
818.86
808.612
801.739
821.11
834.62
842.353
834.622
821.111
824.147
836.108
843.103
836.109
824.147
826.961
837.709
843.997
837.71
826.961
829.519
839.25
844.904
839.252
829.519
831.862
840.696
845.781
840.697
831.862
834.02
842.043
846.615
842.045
834.021
836.013
843.297
847.405
843.298
836.013
837.852
844.461
848.151
844.462
837.852
839.548
845.54
848.853
845.541
839.549
841.124
846.55
849.52
846.551
841.125
842.503
847.436
850.11
847.437
842.504
844.441
848.718
851.01
848.718
844.442
302.313
340.525
450.859
624.523
744.633
624.52
450.857
340.525
302.313
303.597
346.615
464.864
638.542
752.23
638.539
464.863
346.615
303.597
317.103
373.128
501.409
666.532
766.007
666.528
501.406
373.127
317.103
352.157
421.765
553.692
701.046
782.324
701.043
553.689
421.762
352.156
411.845
487.49
612.015
735.465
798.344
735.462
612.012
487.486
411.844
487.772
559.831
667.992
765.877
812.493
765.872
667.988
559.827
487.771
567.097
628.918
716.613
790.778
824.196
790.771
716.608
628.914
567.095
639.56
688.614
755.965
810.129
833.449
810.121
755.959
688.609
639.557
699.966
736.665
786.22
824.607
840.524
824.598
786.213
736.66
699.963
747.194
773.397
808.598
835.128
845.79
835.12
808.591
773.391
747.191
782.426
800.399
824.653
842.595
849.62
842.587
824.646
800.393
782.422
807.759
819.632
835.882
847.784
852.347
847.777
835.875
819.626
807.754
825.676
833.001
843.545
851.314
854.24
851.308
843.538
832.995
825.672
836.844
842.159
848.797
853.69
855.593
853.685
848.791
842.153
836.839
851.698
847.137
851.39
855.197
856.183
855.192
851.384
847.131
851.693
830.133
863.346
856.973
855.921
857.488
855.917
856.968
863.34
830.127
546.209
755.44
853.974
859.059
861.162
859.056
853.969
755.435
546.207
423.73
629.697
828.992
861.784
858.48
861.781
828.987
629.694
423.73
389.931
570.548
806.565
861.601
853.129
861.598
806.56
570.545
389.931
387.771
554.288
794.074
859.429
848.701
859.426
794.069
554.285
387.771
401.798
561.132
789.55
856.557
845.858
856.554
789.546
561.129
401.798
428.244
580.65
790.064
853.818
844.321
853.815
790.059
580.647
428.244
464.327
606.965
793.617
851.634
843.77
851.632
793.613
606.962
464.326
506.43
636.364
798.884
850.169
843.958
850.167
798.88
636.361
506.429
550.935
666.383
805.088
849.399
844.701
849.398
805.085
666.381
550.933
594.903
695.483
811.769
849.25
845.875
849.249
811.766
695.481
594.902
636.259
722.842
818.693
849.646
847.413
849.646
818.691
722.84
636.258
673.715
748.255
825.859
850.553
849.312
850.552
825.858
748.254
673.714
706.719
772.192
833.616
852.025
851.637
852.025
833.615
772.191
706.718
735.343
795.417
843.031
854.272
854.458
854.272
843.031
795.416
735.342
761.629
823.169
856.811
857.008
857.207
857.009
856.812
823.17
761.629
779.019
831.199
831.202
779.02
794.564
822.028
836.055
841.657
836.019
841.66
836.057
822.03
794.565
821.737
827.306
835.703
840.701
834.011
840.702
835.704
827.306
821.737
837.956
841.24
834.626
841.239
837.956
839.819
842.232
836.112
842.23
839.818
841.324
843.292
837.714
843.29
841.323
842.628
844.316
839.255
844.314
842.627
843.811
845.287
840.701
845.284
843.809
844.902
846.2
842.048
846.198
844.901
845.916
847.058
843.301
847.055
845.914
846.858
847.862
844.465
847.86
846.856
847.733
848.615
845.544
848.613
847.732
848.554
849.326
846.553
849.324
848.552
849.275
849.954
847.439
849.952
849.273
850.323
850.887
848.721
850.885
850.322
292.908
299.192
335.749
450.858
598.757
450.857
335.749
299.192
292.908
293.437
299.846
341.952
464.863
611.466
464.863
341.952
299.846
293.437
292.93
310.171
369.392
501.407
638.384
501.406
369.391
310.171
292.93
303.05
338.479
418.995
553.69
673.375
553.689
418.994
338.478
303.049
339.341
391.084
485.122
612.012
710.082
612.012
485.121
391.083
339.34
403.866
462.631
557.564
667.989
744.02
667.988
557.562
462.629
403.865
485.067
541.353
626.845
716.609
772.922
716.607
626.842
541.351
485.065
568.132
616.156
686.889
755.962
796.16
755.958
686.885
616.154
568.13
642.623
680.393
735.323
786.217
814.07
786.213
735.32
680.39
642.62
703.803
731.75
772.378
808.595
827.423
808.59
772.374
731.747
703.8
751.034
770.722
799.61
824.65
837.112
824.646
799.606
770.718
751.031
785.852
799.139
818.995
835.879
843.972
835.875
818.991
799.135
785.848
810.587
819.183
832.419
843.542
848.709
843.538
832.415
819.179
810.583
828.021
833.108
841.524
848.795
852.131
848.791
841.52
833.104
828.018
837.371
841.465
847.381
851.388
852.453
851.384
847.377
841.461
837.367
860.301
851.439
851.34
856.971
865.919
856.968
851.336
851.435
860.296
799.409
848.467
854.869
853.971
821.154
853.969
854.865
848.462
799.405
702.86
821.438
855.252
828.989
741.345
828.987
855.249
821.434
702.857
650.298
797.186
852.484
806.562
697.801
806.561
852.481
797.182
650.295
632.609
783.459
848.42
794.071
684.566
794.07
848.417
783.455
632.607
634.984
778.269
844.39
789.547
688.526
789.547
844.387
778.265
634.982
648.384
778.623
841.114
790.061
701.204
790.061
841.112
778.62
648.382
667.582
782.385
838.891
793.615
717.881
793.614
838.888
782.382
667.58
689.3
788.134
837.753
798.882
735.903
798.882
837.751
788.132
689.298
711.383
794.932
837.583
805.087
753.855
805.086
837.581
794.929
711.38
732.446
802.126
838.186
811.769
771.082
811.768
838.185
802.124
732.444
751.653
809.271
839.355
818.693
787.43
818.693
839.354
809.269
751.651
768.592
816.101
840.923
825.86
803.167
825.859
840.922
816.1
768.591
783.266
822.627
842.884
833.617
819.027
833.617
842.883
822.627
783.265
796.12
828.972
845.791
843.033
836.372
843.033
845.791
828.972
796.12
808.432
839.116
855.11
856.812
857.187
856.813
855.112
839.117
808.432
818.993
842.539
842.542
818.994
831.174
842.5
847.2
836.058
823.462
836.059
847.202
842.502
831.174
847.286
850.167
850.544
835.705
818.863
835.706
850.545
850.167
847.287
851.896
837.957
821.114
837.957
851.897
852.426
839.819
824.15
839.819
852.426
852.797
841.325
826.965
841.324
852.797
853.107
842.628
829.522
842.628
853.107
853.396
843.811
831.865
843.81
853.395
853.67
844.902
834.024
844.902
853.669
853.933
845.916
836.016
845.915
853.932
854.184
846.858
837.855
846.857
854.184
854.425
847.733
839.551
847.733
854.424
854.657
848.553
841.127
848.553
854.656
854.864
849.275
842.506
849.274
854.863
855.215
850.323
844.444
850.323
855.215
294.003
298.673
299.192
340.525
472.042
340.525
299.192
298.673
294.003
294.276
299.091
299.846
346.615
483.079
346.615
299.846
299.091
294.276
295.781
303.187
310.171
373.128
513.863
373.127
310.171
303.187
295.781
302.766
316.885
338.479
421.764
558.968
421.762
338.478
316.884
302.766
327.933
351.827
391.084
487.489
610.815
487.487
391.083
351.826
327.933
379.43
410.964
462.631
559.83
662.327
559.827
462.629
410.962
379.429
452.23
486.167
541.353
628.916
708.707
628.914
541.351
486.165
452.229
533.363
564.895
616.155
688.611
747.602
688.609
616.154
564.892
533.361
610.761
637.156
680.392
736.662
778.544
736.66
680.39
637.153
610.759
677.249
697.72
731.749
773.393
802.175
773.391
731.747
697.717
677.246
730.305
745.286
770.721
800.395
819.638
800.393
770.718
745.283
730.302
770.394
780.871
799.137
819.628
832.16
819.626
799.135
780.868
770.391
799.396
806.474
819.181
832.997
841.12
832.995
819.179
806.47
799.393
819.754
824.329
833.106
842.155
846.166
842.154
833.104
824.326
819.751
832.968
836.285
841.463
847.133
855.829
847.132
841.461
836.281
832.965
843.54
843.996
851.438
863.341
837.121
863.34
851.435
843.992
843.537
852.914
851.48
848.465
755.436
587.694
755.436
848.463
851.477
852.91
848.942
856.233
821.436
629.695
459.068
629.695
821.435
856.23
848.939
840.607
856.678
797.183
570.546
424.469
570.546
797.182
856.674
840.604
834.277
854.514
783.456
554.285
424.697
554.286
783.456
854.511
834.274
830.841
851.468
778.267
561.129
441.908
561.13
778.266
851.465
830.838
829.604
848.58
778.621
580.648
470.453
580.649
778.621
848.577
829.601
829.862
846.352
782.384
606.963
506.746
606.964
782.383
846.349
829.859
831.096
844.933
788.133
636.362
547.409
636.363
788.133
844.931
831.094
832.925
844.275
794.931
666.382
589.479
666.383
794.93
844.273
832.923
835.053
844.231
802.126
695.482
630.743
695.483
802.125
844.229
835.052
837.254
844.612
809.271
722.842
669.892
722.843
809.27
844.611
837.252
839.355
845.209
816.102
748.256
706.495
748.256
816.101
845.208
839.354
841.271
845.818
822.628
772.194
741.039
772.194
822.628
845.817
841.27
843.044
846.203
828.973
795.419
774.347
795.419
828.973
846.203
843.044
845.132
847.129
839.117
823.171
812.722
823.172
839.118
847.13
845.133
848.145
848.582
842.541
831.203
823.72
831.203
842.543
848.584
848.146
852.352
851.925
842.501
822.031
809.654
822.032
842.503
851.926
852.352
856.848
856.978
850.167
827.308
808.615
827.308
850.168
856.98
856.851
293.767
294.003
292.908
302.314
406.504
302.314
292.908
294.003
293.767
293.958
294.276
293.437
303.597
413.569
303.597
293.437
294.276
293.958
294.975
295.781
292.93
317.103
442.714
317.103
292.93
295.781
294.975
299.811
302.766
303.05
352.157
489.175
352.156
303.049
302.766
299.811
319.789
327.933
339.341
411.846
546.282
411.844
339.34
327.933
319.789
365.251
379.43
403.867
487.773
606.374
487.771
403.865
379.429
365.25
434.259
452.23
485.067
567.097
663.031
567.096
485.066
452.229
434.258
514.9
533.363
568.132
639.559
712.202
639.558
568.13
533.361
514.897
594.276
610.761
642.622
699.965
752.284
699.963
642.62
610.759
594.273
663.881
677.248
703.802
747.192
783.418
747.191
703.801
677.246
663.878
720.179
730.305
751.033
782.424
806.698
782.423
751.031
730.302
720.175
763.078
770.393
785.85
807.755
823.51
807.754
785.849
770.391
763.074
794.269
799.395
810.585
825.673
835.929
825.672
810.583
799.393
794.265
816.068
819.754
828.019
836.84
840.787
836.839
828.018
819.751
816.064
830.806
832.967
837.369
851.694
870.687
851.693
837.367
832.965
830.802
840.034
843.54
860.298
830.128
670.702
830.128
860.297
843.537
840.03
847.553
852.913
799.406
546.208
400.529
546.208
799.405
852.91
847.55
854.314
848.941
702.857
423.73
388.467
423.73
702.857
848.939
854.31
858.677
840.605
650.296
389.931
384.443
389.931
650.296
840.604
858.674
860.604
834.276
632.607
387.771
384.149
387.771
632.607
834.274
860.601
860.875
830.839
634.982
401.798
389.547
401.798
634.983
830.838
860.873
860.267
829.603
648.382
428.244
404.785
428.244
648.382
829.602
860.265
859.329
829.861
667.58
464.326
431.528
464.327
667.581
829.86
859.327
858.383
831.095
689.298
506.429
467.97
506.43
689.299
831.094
858.381
857.584
832.924
711.381
550.934
510.527
550.934
711.382
832.923
857.583
856.992
835.053
732.445
594.903
555.514
594.903
732.445
835.052
856.991
856.606
837.253
751.653
636.26
599.916
636.26
751.653
837.253
856.605
856.387
839.355
768.592
673.715
641.561
673.716
768.592
839.354
856.387
856.269
841.271
783.267
706.72
679.131
706.72
783.267
841.271
856.269
856.176
843.044
796.121
735.344
712.062
735.344
796.121
843.045
856.176
856.168
845.132
808.433
761.63
742.681
761.631
808.433
845.133
856.169
856.511
848.145
818.994
779.021
761.45
779.021
818.995
848.146
856.512
857.177
852.351
831.175
794.567
774.911
794.567
831.176
852.353
857.178
857.998
856.849
847.287
821.739
801.742
821.739
847.287
856.852
858.004
)
;

boundaryField
{
    injectionXMinus
    {
        type            uniformFixedValue;
        uniformValue    uniform 400;
        value           uniform 400;
    }
    injectionXPlus
    {
        type            uniformFixedValue;
        uniformValue    uniform 400;
        value           uniform 400;
    }
    injectionYMinus
    {
        type            uniformFixedValue;
        uniformValue    uniform 400;
        value           uniform 400;
    }
    injectionYPlus
    {
        type            uniformFixedValue;
        uniformValue    uniform 400;
        value           uniform 400;
    }
    inletXMinus
    {
        type            uniformFixedValue;
        uniformValue    uniform 293.15;
        value           uniform 293.15;
    }
    inletXPlus
    {
        type            uniformFixedValue;
        uniformValue    uniform 293.15;
        value           uniform 293.15;
    }
    inletYMinus
    {
        type            uniformFixedValue;
        uniformValue    uniform 293.15;
        value           uniform 293.15;
    }
    inletYPlus
    {
        type            uniformFixedValue;
        uniformValue    uniform 293.15;
        value           uniform 293.15;
    }
    outlet
    {
        type            zeroGradient;
    }
    valve
    {
        type            zeroGradient;
    }
    walls
    {
        type            zeroGradient;
    }
}


// ************************************************************************* //
