/*--------------------------------*- C++ -*----------------------------------*\
  =========                 |
  \\      /  F ield         | OpenFOAM: The Open Source CFD Toolbox
   \\    /   O peration     | Website:  https://openfoam.org
    \\  /    A nd           | Version:  6
     \\/     M anipulation  |
\*---------------------------------------------------------------------------*/
FoamFile
{
    version     2.0;
    format      ascii;
    class       volScalarField;
    location    "0.7";
    object      alpha_gas;
}
// * * * * * * * * * * * * * * * * * * * * * * * * * * * * * * * * * * * * * //

dimensions      [0 0 0 0 0 0 0];

internalField   nonuniform List<scalar> 
3029
(
1.19157e-13
1.32296e-13
1.72012e-13
2.6575e-14
-5.26124e-13
2.65952e-14
1.72013e-13
1.32293e-13
1.19152e-13
-1.01121e-13
-2.91971e-13
-6.07955e-13
2.0093e-12
8.73756e-12
2.00903e-12
-6.07986e-13
-2.91948e-13
-1.01114e-13
6.00808e-13
1.68537e-12
1.75555e-12
-2.25418e-11
-6.5869e-11
-2.25397e-11
1.75585e-12
1.68528e-12
6.00782e-13
-4.83928e-12
-1.32469e-11
-9.55683e-12
1.64188e-10
4.14231e-10
1.64174e-10
-9.56019e-12
-1.32462e-11
-4.83903e-12
2.83602e-11
8.24545e-11
4.60735e-11
-1.02283e-09
-2.4158e-09
-1.02274e-09
4.60951e-11
8.24506e-11
2.83587e-11
-1.49454e-10
-4.74598e-10
-2.73408e-10
5.82681e-09
1.34488e-08
5.82635e-09
-2.73531e-10
-4.74575e-10
-1.49446e-10
7.18113e-10
2.58129e-09
1.77943e-09
-3.15759e-08
-7.27803e-08
-3.15736e-08
1.78007e-09
2.58116e-09
7.18071e-10
-3.26364e-09
-1.3674e-08
-1.19277e-08
1.6606e-07
3.87319e-07
1.66048e-07
-1.19309e-08
-1.36732e-08
-3.26344e-09
1.40289e-08
7.1312e-08
7.86726e-08
-8.58928e-07
-2.04402e-06
-8.58872e-07
7.86878e-08
7.13078e-08
1.40279e-08
-5.67332e-08
-3.69077e-07
-5.06519e-07
4.40141e-06
1.07487e-05
4.40114e-06
-5.06591e-07
-3.69054e-07
-5.67291e-08
2.06645e-07
1.89496e-06
3.17128e-06
-2.24529e-05
-5.65024e-05
-2.24516e-05
3.17162e-06
1.89484e-06
2.06627e-07
-6.09711e-07
-9.64252e-06
-1.94528e-05
0.000114246
0.000297687
0.00011424
-1.94542e-05
-9.64196e-06
-6.09646e-07
7.00775e-07
4.79523e-05
0.000118244
-0.000580116
-0.00158004
-0.000580091
0.00011825
4.79498e-05
7.00549e-07
8.88923e-06
-0.000227756
-0.000720485
0.00293006
0.00856517
0.00292996
-0.000720504
-0.000227745
8.88982e-06
-0.000103927
0.000954934
0.00447505
-0.0143929
-0.0498924
-0.0143925
0.00447509
0.000954893
-0.000103928
0.000694218
-0.00250207
-0.0282705
0.0558912
0.417349
0.0558898
-0.0282704
-0.00250196
0.000694209
-0.00228452
-0.00975255
0.120411
0.685339
0.999123
0.685336
0.120409
-0.00975248
-0.00228447
-0.00828728
0.00861926
0.342558
0.954125
1.02528
0.954123
0.342554
0.00861877
-0.00828717
-0.0120879
0.0342733
0.467612
1.03015
1.03369
1.03015
0.467607
0.0342721
-0.0120878
-0.012717
0.0546245
0.521445
1.04388
1.03592
1.04388
0.52144
0.0546228
-0.0127169
-0.0111746
0.0687753
0.540196
1.03782
1.03581
1.03782
0.540189
0.0687731
-0.0111745
-0.00845065
0.078961
0.544037
1.02551
1.03439
1.0255
0.54403
0.0789585
-0.00845058
-0.00513878
0.0870826
0.54214
1.01141
1.03197
1.01141
0.542133
0.0870798
-0.00513876
-0.00154407
0.0942677
0.538346
0.997028
1.02875
0.997024
0.538338
0.0942647
-0.00154411
0.00217994
0.101159
0.534347
0.982857
1.02484
0.982854
0.534339
0.101156
0.00217983
0.00595001
0.108199
0.531003
0.969058
1.02029
0.969054
0.530995
0.108196
0.00594982
0.00972154
0.115787
0.528799
0.955466
1.01494
0.955462
0.528792
0.115784
0.00972127
0.0134946
0.124304
0.527988
0.941801
1.00879
0.941798
0.527982
0.124301
0.0134943
0.0173598
0.13379
0.527042
0.924975
0.998817
0.924972
0.527036
0.133787
0.0173594
0.0214656
0.143242
0.523703
0.904881
0.98689
0.904878
0.523699
0.14324
0.021465
0.0258743
0.148547
0.503527
0.852869
0.938537
0.852866
0.503523
0.148545
0.0258736
0.027268
0.141257
0.475976
0.823358
0.919606
0.823356
0.475973
0.141255
0.0272673
0.0227529
0.105992
0.413607
0.820547
0.962407
0.820546
0.413605
0.105991
0.0227522
0.0145129
0.0421015
0.227659
0.657574
0.940183
0.657574
0.227658
0.0421006
0.0145121
1.32296e-13
1.35111e-13
1.53845e-13
2.52247e-15
-4.19487e-13
2.5433e-15
1.53846e-13
1.35109e-13
1.32293e-13
-2.91974e-13
-3.43135e-13
-5.07805e-13
1.32759e-12
5.66468e-12
1.3273e-12
-5.07875e-13
-3.4312e-13
-2.91961e-13
1.68538e-12
1.9964e-12
2.24011e-12
-1.02156e-11
-3.51533e-11
-1.02145e-11
2.24019e-12
1.9963e-12
1.68534e-12
-1.3247e-11
-1.28721e-11
-1.39677e-11
5.59075e-11
1.90139e-10
5.59003e-11
-1.39688e-11
-1.28716e-11
-1.32466e-11
8.24551e-11
7.14206e-11
8.28671e-11
-2.78561e-10
-9.98349e-10
-2.78525e-10
8.2872e-11
7.1418e-11
8.24531e-11
-4.74602e-10
-3.73327e-10
-4.82392e-10
1.32038e-09
5.17283e-09
1.32019e-09
-4.82413e-10
-3.73313e-10
-4.74591e-10
2.58131e-09
1.85005e-09
2.70561e-09
-6.0779e-09
-2.66472e-08
-6.07699e-09
2.70569e-09
1.84998e-09
2.58126e-09
-1.36741e-08
-8.90221e-09
-1.492e-08
2.70221e-08
1.36689e-07
2.70177e-08
-1.49203e-08
-8.90186e-09
-1.36738e-08
7.13126e-08
4.17668e-08
8.13417e-08
-1.14972e-07
-6.99827e-07
-1.1495e-07
8.13422e-08
4.1765e-08
7.13112e-08
-3.6908e-07
-1.91492e-07
-4.40744e-07
4.55949e-07
3.57878e-06
4.55846e-07
-4.40743e-07
-1.91483e-07
-3.69072e-07
1.89498e-06
8.48827e-07
2.36698e-06
-1.59747e-06
-1.83001e-05
-1.59697e-06
2.36696e-06
8.48785e-07
1.89494e-06
-9.64258e-06
-3.5946e-06
-1.25989e-05
4.04037e-06
9.3527e-05
4.03828e-06
-1.25987e-05
-3.5944e-06
-9.64242e-06
4.79525e-05
1.39109e-05
6.62046e-05
3.66276e-06
-0.000477251
3.67127e-06
6.62035e-05
1.39101e-05
4.79517e-05
-0.000227756
-4.45831e-05
-0.000340603
-0.000177152
0.00241263
-0.000177184
-0.000340597
-4.45807e-05
-0.000227753
0.000954933
7.04265e-05
0.0016616
0.00214662
-0.0116859
0.00214672
0.00166157
7.04212e-05
0.00095492
-0.00250206
0.000485186
-0.00679198
-0.022997
0.0420628
-0.0229971
-0.00679183
0.000485182
-0.00250202
-0.00975255
-0.00463619
0.00939208
0.223768
0.593548
0.223766
0.00939173
-0.00463609
-0.00975253
0.00861918
-0.00762849
0.0763011
0.506322
0.876096
0.506319
0.0762996
-0.00762839
0.008619
0.0342731
-0.00378666
0.13641
0.644719
0.95616
0.644715
0.136408
-0.00378668
0.0342727
0.0546241
0.00427481
0.175078
0.697277
0.969207
0.697272
0.175075
0.00427462
0.0546235
0.0687747
0.0139793
0.198492
0.711749
0.961056
0.711744
0.198487
0.0139789
0.0687739
0.0789602
0.0241151
0.213834
0.711144
0.946356
0.711138
0.213829
0.0241145
0.0789593
0.0870815
0.0342582
0.225315
0.705004
0.929881
0.704998
0.22531
0.0342575
0.0870805
0.0942662
0.0443154
0.235014
0.696728
0.912833
0.696722
0.235009
0.0443145
0.0942651
0.101157
0.054334
0.24384
0.687361
0.895196
0.687355
0.243834
0.0543328
0.101156
0.108197
0.0644798
0.252246
0.676767
0.876271
0.676761
0.252241
0.0644785
0.108196
0.115784
0.0750199
0.26029
0.663504
0.853958
0.663499
0.260285
0.0750185
0.115783
0.124301
0.0866577
0.268247
0.644838
0.824502
0.644834
0.268242
0.0866562
0.1243
0.133786
0.0994754
0.272023
0.609965
0.774262
0.609961
0.272019
0.099474
0.133785
0.143238
0.11661
0.277846
0.556188
0.698603
0.556186
0.277843
0.116609
0.143237
0.148543
0.128702
0.223327
0.380592
0.466275
0.38059
0.223325
0.128701
0.148542
0.141253
0.13597
0.207892
0.32046
0.389743
0.320459
0.20789
0.135969
0.141252
0.105989
0.112652
0.253458
0.490916
0.591333
0.490915
0.253457
0.112651
0.105987
0.0420997
0.034099
0.168824
0.583021
0.871199
0.583021
0.168823
0.034098
0.0420989
1.72012e-13
1.53845e-13
1.30055e-13
7.73989e-15
-2.23161e-13
7.71602e-15
1.30029e-13
1.53843e-13
1.7201e-13
-6.07948e-13
-5.078e-13
-4.47388e-13
3.41187e-13
2.01971e-12
3.40975e-13
-4.47466e-13
-5.078e-13
-6.07946e-13
1.75549e-12
2.24007e-12
2.36004e-12
-5.0726e-13
-7.23563e-12
-5.07047e-13
2.36e-12
2.24004e-12
1.75557e-12
-9.55632e-12
-1.39675e-11
-1.44258e-11
-5.91936e-12
1.95959e-11
-5.92066e-12
-1.44259e-11
-1.39674e-11
-9.5571e-12
4.60704e-11
8.2866e-11
7.9968e-11
6.01289e-11
-3.63207e-11
6.01327e-11
7.99679e-11
8.28658e-11
4.6076e-11
-2.73392e-10
-4.82388e-10
-4.16082e-10
-4.07276e-10
-5.087e-11
-4.07288e-10
-4.16081e-10
-4.82386e-10
-2.73424e-10
1.77936e-09
2.70559e-09
2.06002e-09
2.40894e-09
1.16367e-09
2.40897e-09
2.06002e-09
2.70558e-09
1.77953e-09
-1.19274e-08
-1.492e-08
-9.94754e-09
-1.35643e-08
-9.86279e-09
-1.35643e-08
-9.9475e-09
-1.49199e-08
-1.19282e-08
7.86713e-08
8.13416e-08
4.70349e-08
7.46026e-08
6.91008e-08
7.46022e-08
4.70346e-08
8.13413e-08
7.86751e-08
-5.06513e-07
-4.40745e-07
-2.18166e-07
-4.06059e-07
-4.50737e-07
-4.06054e-07
-2.18165e-07
-4.40743e-07
-5.06531e-07
3.17125e-06
2.36699e-06
9.82055e-07
2.18702e-06
2.82704e-06
2.18699e-06
9.82047e-07
2.36698e-06
3.17134e-06
-1.94527e-05
-1.25989e-05
-4.23995e-06
-1.16616e-05
-1.7338e-05
-1.16614e-05
-4.2399e-06
-1.25989e-05
-1.94531e-05
0.000118244
6.62047e-05
1.70945e-05
6.12855e-05
0.000104907
6.12844e-05
1.70942e-05
6.62046e-05
0.000118246
-0.000720486
-0.000340603
-6.09467e-05
-0.000314164
-0.000632507
-0.000314158
-6.09456e-05
-0.000340603
-0.000720491
0.00447505
0.0016616
0.000160915
0.00151337
0.00383151
0.00151334
0.000160911
0.0016616
0.00447506
-0.0282705
-0.00679197
-3.99595e-05
-0.00592078
-0.0228844
-0.00592066
-3.99527e-05
-0.00679195
-0.0282705
0.12041
0.00939203
-0.00221312
0.00444905
0.0792385
0.00444885
-0.0022131
0.00939197
0.12041
0.342557
0.0763008
0.000847322
0.0634096
0.25887
0.0634086
0.00084726
0.0763005
0.342556
0.467611
0.13641
0.00987262
0.118056
0.362407
0.118054
0.00987243
0.136409
0.467609
0.521444
0.175078
0.0216429
0.153602
0.406381
0.1536
0.0216425
0.175077
0.521441
0.540194
0.19849
0.0342488
0.175171
0.42057
0.175168
0.0342483
0.198489
0.540191
0.544035
0.213832
0.0469453
0.189179
0.422011
0.189176
0.0469446
0.213831
0.544032
0.542138
0.225313
0.0595271
0.19933
0.418344
0.199326
0.0595262
0.225312
0.542134
0.538343
0.235011
0.0719295
0.207572
0.412647
0.207569
0.0719285
0.23501
0.538339
0.534343
0.243836
0.0841501
0.214522
0.405745
0.214519
0.084149
0.243835
0.53434
0.530998
0.252241
0.0962725
0.220049
0.397067
0.220046
0.0962714
0.25224
0.530995
0.528794
0.260285
0.108346
0.223305
0.384635
0.223302
0.108344
0.260284
0.528791
0.527983
0.268241
0.120888
0.222187
0.364045
0.222185
0.120887
0.26824
0.52798
0.527036
0.272017
0.131253
0.211012
0.325375
0.21101
0.131252
0.272016
0.527033
0.523697
0.27784
0.146768
0.177053
0.247554
0.177051
0.146767
0.277839
0.523695
0.503519
0.223322
0.0561161
0.0420098
0.0448227
0.0420097
0.056116
0.223322
0.503518
0.475969
0.207887
0.207887
0.475967
0.413599
0.253453
0.196167
0.328806
0.446916
0.328805
0.196166
0.253452
0.413598
0.227653
0.168818
0.155037
0.406159
0.646988
0.406159
0.155036
0.168818
0.227653
0.139218
0.408294
0.687068
0.408295
0.139218
0.134858
0.402454
0.689866
0.402456
0.134857
0.135139
0.398435
0.684936
0.398438
0.135139
0.137107
0.396052
0.678619
0.396054
0.137107
0.139618
0.394419
0.672135
0.394421
0.139618
0.142259
0.393037
0.665645
0.393039
0.142258
0.144882
0.391699
0.659151
0.3917
0.144881
0.147438
0.390309
0.652608
0.39031
0.147438
0.149901
0.388879
0.646109
0.38888
0.1499
0.152315
0.387233
0.639218
0.387234
0.152314
0.154378
0.385974
0.633658
0.385975
0.154377
0.157718
0.382991
0.622638
0.382991
0.157717
2.65724e-14
2.51952e-15
7.73754e-15
-1.36187e-14
-7.40218e-14
-1.36585e-14
7.71509e-15
2.53093e-15
2.6576e-14
2.00934e-12
1.32763e-12
3.41212e-13
-4.58556e-14
1.42092e-13
-4.59761e-14
3.4115e-13
1.32758e-12
2.00924e-12
-2.2542e-11
-1.02159e-11
-5.07389e-13
1.93532e-12
1.57259e-12
1.9353e-12
-5.07442e-13
-1.02157e-11
-2.25412e-11
1.6419e-10
5.5909e-11
-5.91885e-12
-1.32971e-11
-1.26447e-11
-1.32975e-11
-5.91857e-12
5.59082e-11
1.64184e-10
-1.02284e-09
-2.78569e-10
6.01271e-11
6.87878e-11
7.07231e-11
6.87905e-11
6.01256e-11
-2.78567e-10
-1.0228e-09
5.82684e-09
1.32042e-09
-4.07271e-10
-3.30839e-10
-3.64707e-10
-3.30854e-10
-4.07266e-10
1.32042e-09
5.82666e-09
-3.15761e-08
-6.07806e-09
2.40892e-09
1.53986e-09
1.8253e-09
1.53994e-09
2.40892e-09
-6.07808e-09
-3.15752e-08
1.6606e-07
2.70228e-08
-1.35643e-08
-7.09834e-09
-9.12056e-09
-7.09871e-09
-1.35643e-08
2.70229e-08
1.66056e-07
-8.58929e-07
-1.14975e-07
7.46027e-08
3.23147e-08
4.56438e-08
3.23164e-08
7.46031e-08
-1.14975e-07
-8.58907e-07
4.40141e-06
4.5596e-07
-4.0606e-07
-1.44791e-07
-2.29279e-07
-1.44798e-07
-4.06063e-07
4.5596e-07
4.4013e-06
-2.24529e-05
-1.59752e-06
2.18703e-06
6.27177e-07
1.14853e-06
6.27207e-07
2.18705e-06
-1.5975e-06
-2.24524e-05
0.000114245
4.04045e-06
-1.16616e-05
-2.56999e-06
-5.70908e-06
-2.5701e-06
-1.16617e-05
4.0404e-06
0.000114243
-0.000580114
3.66277e-06
6.12856e-05
9.43414e-06
2.77765e-05
9.43449e-06
6.12863e-05
3.6631e-06
-0.000580104
0.00293005
-0.000177154
-0.000314164
-2.64123e-05
-0.000128286
-2.64131e-05
-0.000314167
-0.000177156
0.00293
-0.0143929
0.00214664
0.00151337
5.73161e-06
0.000509763
5.73157e-06
0.00151338
0.00214664
-0.0143927
0.0558908
-0.0229971
-0.00592076
0.000652718
-0.00105617
0.00065273
-0.0059208
-0.0229971
0.05589
0.685338
0.223767
0.004449
-0.00467994
-0.00822892
-0.00468
0.00444903
0.223767
0.685337
0.954125
0.506321
0.0634093
-0.00938092
-0.00125384
-0.00938105
0.0634095
0.50632
0.954124
1.03015
0.644718
0.118055
-0.00791549
0.01199
-0.00791564
0.118056
0.644717
1.03015
1.04388
0.697275
0.153601
-0.00220416
0.023787
-0.00220431
0.153602
0.697274
1.04388
1.03782
0.711748
0.17517
0.00534876
0.032898
0.00534863
0.175171
0.711746
1.03782
1.02551
0.711142
0.189177
0.0134922
0.040129
0.0134921
0.189178
0.71114
1.0255
1.01141
0.705002
0.199327
0.0217265
0.0462566
0.0217264
0.199328
0.705
1.01141
0.997028
0.696726
0.207569
0.0298187
0.0517255
0.0298186
0.20757
0.696724
0.997025
0.982857
0.687358
0.214518
0.0376466
0.0566671
0.0376465
0.214519
0.687356
0.982854
0.969058
0.676763
0.220044
0.0450383
0.0609307
0.0450382
0.220045
0.676761
0.969055
0.955466
0.6635
0.2233
0.0516655
0.0640528
0.0516654
0.223301
0.663498
0.955463
0.941802
0.644834
0.222181
0.0566336
0.064908
0.0566335
0.222182
0.644832
0.941799
0.924975
0.60996
0.211006
0.058653
0.0616701
0.0586529
0.211007
0.609959
0.924973
0.904881
0.556182
0.177047
0.0496832
0.0481961
0.0496832
0.177047
0.556182
0.90488
0.852868
0.380586
0.0420072
0.0410653
0.0366803
0.0410654
0.0420075
0.380586
0.852867
0.823357
0.320455
0.320455
0.823357
0.820545
0.490911
0.328801
0.269322
0.338448
0.269323
0.328802
0.490912
0.820545
0.657569
0.583015
0.406154
0.302745
0.391945
0.302745
0.406154
0.583016
0.65757
0.408289
0.323116
0.419309
0.323117
0.40829
0.402449
0.331596
0.428993
0.331596
0.40245
0.398431
0.335331
0.431651
0.335331
0.398431
0.396047
0.337363
0.431796
0.337362
0.396048
0.394414
0.338758
0.431061
0.338757
0.394414
0.393032
0.339863
0.429988
0.339861
0.393032
0.391694
0.340785
0.428756
0.340783
0.391694
0.390304
0.341551
0.427404
0.341548
0.390304
0.388875
0.342193
0.425994
0.342189
0.388874
0.387229
0.342634
0.424353
0.342631
0.387228
0.38597
0.343096
0.423113
0.343092
0.385969
0.382987
0.343173
0.420109
0.343169
0.382986
-5.26121e-13
-4.19485e-13
-2.23162e-13
-7.40229e-14
-3.21637e-14
-7.40158e-14
-2.23152e-13
-4.19479e-13
-5.26111e-13
8.73752e-12
5.66467e-12
2.01974e-12
1.42105e-13
-1.88716e-13
1.42143e-13
2.01985e-12
5.66473e-12
8.7374e-12
-6.58686e-11
-3.51533e-11
-7.23582e-12
1.57257e-12
1.87058e-12
1.57253e-12
-7.23625e-12
-3.51534e-11
-6.58678e-11
4.14228e-10
1.90139e-10
1.95969e-11
-1.26449e-11
-9.51348e-12
-1.26456e-11
1.95989e-11
1.9014e-10
4.14224e-10
-2.41579e-09
-9.98351e-10
-3.63251e-11
7.07245e-11
4.40737e-11
7.07295e-11
-3.63364e-11
-9.98362e-10
-2.41576e-09
1.34487e-08
5.17284e-09
-5.08507e-11
-3.64716e-10
-2.00132e-10
-3.64747e-10
-5.07948e-11
5.1729e-09
1.34486e-08
-7.278e-08
-2.66472e-08
1.16359e-09
1.82535e-09
8.87811e-10
1.82552e-09
1.16332e-09
-2.66476e-08
-7.27794e-08
3.87318e-07
1.36689e-07
-9.86247e-09
-9.12078e-09
-3.88191e-09
-9.12168e-09
-9.86127e-09
1.36691e-07
3.87315e-07
-2.04401e-06
-6.99826e-07
6.90995e-08
4.56448e-08
1.65102e-08
4.56493e-08
6.90942e-08
-6.99834e-07
-2.044e-06
1.07487e-05
3.57878e-06
-4.50732e-07
-2.29283e-07
-6.7429e-08
-2.29305e-07
-4.50709e-07
3.57882e-06
1.07486e-05
-5.65022e-05
-1.83001e-05
2.82702e-06
1.14855e-06
2.53906e-07
1.14865e-06
2.82692e-06
-1.83002e-05
-5.65019e-05
0.000297687
9.35267e-05
-1.7338e-05
-5.70913e-06
-8.14157e-07
-5.70959e-06
-1.73376e-05
9.35274e-05
0.000297685
-0.00158004
-0.00047725
0.000104907
2.77766e-05
1.57982e-06
2.77786e-05
0.000104906
-0.000477252
-0.00158004
0.00856516
0.00241262
-0.000632507
-0.000128286
5.07837e-06
-0.000128294
-0.000632503
0.00241263
0.00856513
-0.0498923
-0.0116859
0.00383151
0.000509762
-8.50227e-05
0.000509788
0.00383151
-0.0116859
-0.0498922
0.417348
0.0420625
-0.0228844
-0.00105616
0.000580487
-0.00105622
-0.0228844
0.0420625
0.417347
0.999123
0.593548
0.0792383
-0.00822891
-0.0017348
-0.00822903
0.0792386
0.593548
0.999123
1.02528
0.876096
0.25887
-0.00125389
-0.0070821
-0.00125381
0.258871
0.876095
1.02528
1.03369
0.956159
0.362406
0.0119898
-0.0106227
0.0119902
0.362407
0.956159
1.03369
1.03592
0.969207
0.406381
0.0237867
-0.01114
0.0237874
0.406382
0.969206
1.03592
1.03581
0.961056
0.420569
0.0328974
-0.00943748
0.0328984
0.42057
0.961055
1.03581
1.03439
0.946357
0.42201
0.0401282
-0.00645359
0.0401294
0.422012
0.946355
1.03439
1.03198
0.929882
0.418342
0.0462555
-0.00274764
0.0462569
0.418344
0.929881
1.03197
1.02875
0.912834
0.412645
0.0517242
0.00125995
0.0517255
0.412647
0.912833
1.02875
1.02485
0.895197
0.405743
0.0566657
0.0054082
0.056667
0.405745
0.895196
1.02484
1.02029
0.876273
0.397064
0.0609291
0.00963548
0.0609303
0.397066
0.876272
1.02029
1.01495
0.853961
0.384632
0.064051
0.0139045
0.0640521
0.384634
0.853959
1.01495
1.00879
0.824504
0.364042
0.0649061
0.0181482
0.064907
0.364043
0.824503
1.00879
0.998822
0.774264
0.325372
0.0616681
0.0223313
0.0616688
0.325373
0.774263
0.998821
0.986896
0.698604
0.24755
0.0481942
0.0258167
0.0481946
0.247551
0.698604
0.986895
0.938543
0.466275
0.0448195
0.0366794
0.0280751
0.0366796
0.04482
0.466275
0.938543
0.919612
0.389741
0.389742
0.919612
0.962415
0.591335
0.446916
0.338448
0.302547
0.338449
0.446917
0.591335
0.962415
0.940191
0.871206
0.646992
0.391945
0.305054
0.391945
0.646992
0.871206
0.940192
0.687072
0.419309
0.310224
0.419309
0.687073
0.68987
0.428994
0.314472
0.428992
0.689869
0.68494
0.431652
0.31767
0.43165
0.684939
0.678624
0.431797
0.32023
0.431793
0.678621
0.672139
0.431062
0.322437
0.431057
0.672136
0.665649
0.429989
0.324417
0.429983
0.665646
0.659155
0.428757
0.32622
0.428751
0.659152
0.652612
0.427405
0.327855
0.427399
0.652609
0.646113
0.425995
0.329344
0.425988
0.646109
0.639222
0.424355
0.330645
0.424348
0.639219
0.633662
0.423114
0.331817
0.423107
0.633658
0.622641
0.42011
0.333163
0.420103
0.622638
2.65978e-14
2.54561e-15
7.71739e-15
-1.36574e-14
-7.40163e-14
-1.36025e-14
7.7547e-15
2.53888e-15
2.65943e-14
2.00899e-12
1.32728e-12
3.40969e-13
-4.59782e-14
1.42148e-13
-4.58715e-14
3.41132e-13
1.32742e-12
2.00902e-12
-2.25393e-11
-1.02144e-11
-5.07057e-13
1.93532e-12
1.57253e-12
1.93525e-12
-5.07305e-13
-1.02147e-11
-2.25395e-11
1.64171e-10
5.58997e-11
-5.92053e-12
-1.32977e-11
-1.26457e-11
-1.3298e-11
-5.91954e-12
5.59024e-11
1.64173e-10
-1.02273e-09
-2.78523e-10
6.01321e-11
6.87916e-11
7.07302e-11
6.87935e-11
6.01288e-11
-2.78537e-10
-1.02274e-09
5.82629e-09
1.32019e-09
-4.07286e-10
-3.3086e-10
-3.64751e-10
-3.30872e-10
-4.07275e-10
1.32027e-09
5.82634e-09
-3.15733e-08
-6.07696e-09
2.40896e-09
1.53997e-09
1.82554e-09
1.54003e-09
2.40893e-09
-6.07736e-09
-3.15736e-08
1.66047e-07
2.70175e-08
-1.35643e-08
-7.09883e-09
-9.12176e-09
-7.09912e-09
-1.35643e-08
2.70195e-08
1.66048e-07
-8.58866e-07
-1.1495e-07
7.46023e-08
3.23169e-08
4.56496e-08
3.23182e-08
7.46026e-08
-1.14959e-07
-8.58872e-07
4.40111e-06
4.55842e-07
-4.06055e-07
-1.448e-07
-2.29306e-07
-1.44806e-07
-4.06059e-07
4.55885e-07
4.40114e-06
-2.24515e-05
-1.59695e-06
2.187e-06
6.27212e-07
1.14865e-06
6.27236e-07
2.18702e-06
-1.59715e-06
-2.24516e-05
0.000114239
4.03818e-06
-1.16614e-05
-2.57012e-06
-5.70958e-06
-2.57021e-06
-1.16615e-05
4.039e-06
0.00011424
-0.000580089
3.67172e-06
6.12846e-05
9.43452e-06
2.77785e-05
9.43483e-06
6.12854e-05
3.66854e-06
-0.000580091
0.00292995
-0.000177186
-0.000314158
-2.64131e-05
-0.000128293
-2.64139e-05
-0.000314163
-0.000177175
0.00292995
-0.0143925
0.00214673
0.00151334
5.73139e-06
0.000509785
5.73233e-06
0.00151336
0.0021467
-0.0143925
0.0558895
-0.0229972
-0.00592066
0.000652729
-0.00105621
0.000652735
-0.00592073
-0.0229971
0.0558893
0.685336
0.223766
0.00444882
-0.00467998
-0.00822901
-0.00468002
0.00444892
0.223766
0.685336
0.954123
0.506319
0.0634085
-0.00938101
-0.00125385
-0.00938109
0.0634091
0.506319
0.954123
1.03015
0.644715
0.118054
-0.00791561
0.0119901
-0.00791569
0.118055
0.644716
1.03015
1.04388
0.697273
0.1536
-0.00220431
0.0237871
-0.00220437
0.153601
0.697273
1.04388
1.03782
0.711745
0.175168
0.00534857
0.0328979
0.00534855
0.17517
0.711746
1.03782
1.02551
0.71114
0.189176
0.013492
0.0401287
0.013492
0.189178
0.71114
1.0255
1.01141
0.705
0.199326
0.0217263
0.0462559
0.0217263
0.199328
0.705001
1.01141
0.997027
0.696725
0.207569
0.0298184
0.0517244
0.0298185
0.207571
0.696726
0.997026
0.982857
0.687359
0.214519
0.0376462
0.0566657
0.0376463
0.214521
0.687359
0.982856
0.969059
0.676765
0.220046
0.0450379
0.0609289
0.0450379
0.220048
0.676766
0.969058
0.955468
0.663504
0.223303
0.0516649
0.0640505
0.051665
0.223304
0.663504
0.955467
0.941805
0.64484
0.222185
0.0566329
0.0649054
0.056633
0.222186
0.64484
0.941804
0.92498
0.609967
0.21101
0.0586521
0.0616671
0.0586523
0.211011
0.609967
0.924979
0.904888
0.556191
0.177051
0.0496819
0.048193
0.049682
0.177052
0.556192
0.904887
0.852876
0.380593
0.0420075
0.0410642
0.0366787
0.0410643
0.0420079
0.380594
0.852876
0.823367
0.320461
0.320462
0.823367
0.820558
0.490921
0.328809
0.269327
0.338448
0.269326
0.32881
0.490921
0.820558
0.657587
0.583032
0.406166
0.30275
0.391944
0.302748
0.406165
0.583031
0.657586
0.408303
0.323122
0.419309
0.32312
0.408301
0.402464
0.331601
0.428992
0.331598
0.402462
0.398446
0.335337
0.43165
0.335334
0.398443
0.396062
0.337367
0.431794
0.337364
0.39606
0.394428
0.338763
0.431057
0.33876
0.394426
0.393047
0.339866
0.429983
0.339863
0.393045
0.391708
0.340789
0.428751
0.340786
0.391706
0.390317
0.341554
0.427399
0.341551
0.390316
0.388888
0.342195
0.425989
0.342193
0.388886
0.387241
0.342636
0.424348
0.342634
0.38724
0.385982
0.343098
0.423108
0.343096
0.385981
0.382998
0.343175
0.420103
0.343173
0.382997
1.72012e-13
1.53845e-13
1.30029e-13
7.71719e-15
-2.23153e-13
7.75316e-15
1.30058e-13
1.53844e-13
1.7201e-13
-6.0799e-13
-5.07877e-13
-4.4747e-13
3.41134e-13
2.01986e-12
3.41147e-13
-4.47409e-13
-5.07815e-13
-6.07977e-13
1.75589e-12
2.2402e-12
2.36002e-12
-5.07388e-13
-7.23631e-12
-5.07371e-13
2.35993e-12
2.24011e-12
1.75582e-12
-9.56054e-12
-1.39689e-11
-1.44259e-11
-5.91873e-12
1.95993e-11
-5.91931e-12
-1.44258e-11
-1.39685e-11
-9.55981e-12
4.60973e-11
8.28724e-11
7.99681e-11
6.01261e-11
-3.63376e-11
6.01282e-11
7.99676e-11
8.28699e-11
4.60928e-11
-2.73542e-10
-4.82415e-10
-4.16082e-10
-4.07267e-10
-5.07901e-11
-4.07273e-10
-4.16081e-10
-4.82405e-10
-2.73517e-10
1.78012e-09
2.7057e-09
2.06002e-09
2.40892e-09
1.16331e-09
2.40893e-09
2.06002e-09
2.70565e-09
1.78e-09
-1.19311e-08
-1.49203e-08
-9.94752e-09
-1.35643e-08
-9.86123e-09
-1.35643e-08
-9.94751e-09
-1.49201e-08
-1.19305e-08
7.86888e-08
8.13425e-08
4.70347e-08
7.46032e-08
6.90941e-08
7.46027e-08
4.70347e-08
8.1342e-08
7.86858e-08
-5.06595e-07
-4.40745e-07
-2.18165e-07
-4.06063e-07
-4.50709e-07
-4.06059e-07
-2.18164e-07
-4.40744e-07
-5.06581e-07
3.17164e-06
2.36697e-06
9.82047e-07
2.18705e-06
2.82693e-06
2.18702e-06
9.82045e-07
2.36697e-06
3.17157e-06
-1.94542e-05
-1.25987e-05
-4.2399e-06
-1.16617e-05
-1.73376e-05
-1.16615e-05
-4.23989e-06
-1.25988e-05
-1.9454e-05
0.00011825
6.62036e-05
1.70941e-05
6.12862e-05
0.000104906
6.12853e-05
1.70941e-05
6.62039e-05
0.000118249
-0.000720505
-0.000340597
-6.09455e-05
-0.000314167
-0.000632504
-0.000314162
-6.09452e-05
-0.000340599
-0.000720502
0.00447509
0.00166157
0.000160911
0.00151338
0.00383151
0.00151336
0.00016091
0.00166158
0.00447509
-0.0282704
-0.00679183
-3.99516e-05
-0.00592079
-0.0228844
-0.00592071
-3.99495e-05
-0.00679187
-0.0282704
0.120409
0.0093917
-0.0022131
0.004449
0.0792385
0.00444887
-0.0022131
0.00939179
0.120409
0.342554
0.0762996
0.000847256
0.0634095
0.25887
0.0634088
0.000847237
0.0762999
0.342554
0.467607
0.136408
0.00987243
0.118056
0.362407
0.118054
0.00987237
0.136408
0.467608
0.52144
0.175075
0.0216426
0.153602
0.406381
0.1536
0.0216424
0.175076
0.52144
0.54019
0.198488
0.0342483
0.175171
0.420569
0.175168
0.0342482
0.198489
0.54019
0.544032
0.21383
0.0469448
0.189178
0.422011
0.189176
0.0469445
0.213831
0.544032
0.542135
0.225312
0.0595265
0.199328
0.418342
0.199326
0.0595263
0.225313
0.542136
0.538341
0.23501
0.071929
0.20757
0.412645
0.207568
0.0719287
0.235011
0.538341
0.534343
0.243837
0.0841497
0.214519
0.405743
0.214517
0.0841493
0.243838
0.534343
0.531
0.252243
0.0962724
0.220046
0.397064
0.220044
0.096272
0.252244
0.531
0.528798
0.260288
0.108346
0.223302
0.384631
0.2233
0.108345
0.260289
0.528798
0.527989
0.268246
0.120888
0.222183
0.36404
0.222182
0.120888
0.268247
0.527989
0.527044
0.272023
0.131254
0.211008
0.32537
0.211006
0.131254
0.272024
0.527044
0.523707
0.277848
0.146769
0.177048
0.247547
0.177047
0.146769
0.277848
0.523707
0.503532
0.223329
0.0561147
0.0420059
0.0448175
0.0420059
0.0561148
0.223329
0.503532
0.475982
0.207893
0.207894
0.475982
0.413614
0.253462
0.19617
0.328805
0.446915
0.328805
0.19617
0.253462
0.413614
0.227665
0.168828
0.155041
0.406161
0.646993
0.40616
0.15504
0.168827
0.227664
0.139222
0.408297
0.687074
0.408296
0.139222
0.134862
0.402457
0.689871
0.402457
0.134861
0.135144
0.398439
0.684941
0.398438
0.135143
0.137111
0.396055
0.678623
0.396055
0.137111
0.139623
0.394421
0.672138
0.394422
0.139622
0.142263
0.39304
0.665648
0.39304
0.142263
0.144886
0.391701
0.659154
0.391702
0.144886
0.147442
0.390311
0.65261
0.390311
0.147442
0.149905
0.388881
0.646111
0.388882
0.149905
0.152319
0.387235
0.63922
0.387236
0.152319
0.154382
0.385976
0.63366
0.385977
0.154382
0.157722
0.382993
0.622639
0.382993
0.157722
1.32292e-13
1.35108e-13
1.53843e-13
2.53395e-15
-4.1948e-13
2.53685e-15
1.53844e-13
1.35106e-13
1.3229e-13
-2.91948e-13
-3.43118e-13
-5.07806e-13
1.32754e-12
5.66473e-12
1.32744e-12
-5.07814e-13
-3.43107e-13
-2.91947e-13
1.68528e-12
1.9963e-12
2.24008e-12
-1.02155e-11
-3.51535e-11
-1.02149e-11
2.24009e-12
1.99623e-12
1.68529e-12
-1.32462e-11
-1.28715e-11
-1.39677e-11
5.59071e-11
1.90141e-10
5.59033e-11
-1.39684e-11
-1.28715e-11
-1.32462e-11
8.24508e-11
7.14178e-11
8.28668e-11
-2.78562e-10
-9.98363e-10
-2.78541e-10
8.28695e-11
7.14169e-11
8.24509e-11
-4.74576e-10
-3.73313e-10
-4.8239e-10
1.32039e-09
5.17291e-09
1.32028e-09
-4.82403e-10
-3.73309e-10
-4.74577e-10
2.58117e-09
1.84997e-09
2.7056e-09
-6.07795e-09
-2.66476e-08
-6.07742e-09
2.70565e-09
1.84995e-09
2.58118e-09
-1.36733e-08
-8.90183e-09
-1.492e-08
2.70223e-08
1.36691e-07
2.70197e-08
-1.49201e-08
-8.90173e-09
-1.36733e-08
7.1308e-08
4.17649e-08
8.13416e-08
-1.14972e-07
-6.99834e-07
-1.1496e-07
8.1342e-08
4.17644e-08
7.13086e-08
-3.69055e-07
-1.91483e-07
-4.40744e-07
4.55947e-07
3.57881e-06
4.55887e-07
-4.40744e-07
-1.9148e-07
-3.69058e-07
1.89485e-06
8.48782e-07
2.36698e-06
-1.59744e-06
-1.83002e-05
-1.59715e-06
2.36697e-06
8.48769e-07
1.89487e-06
-9.64199e-06
-3.59438e-06
-1.25989e-05
4.04016e-06
9.35272e-05
4.03893e-06
-1.25988e-05
-3.59432e-06
-9.64208e-06
4.79499e-05
1.39101e-05
6.62046e-05
3.66409e-06
-0.000477251
3.66912e-06
6.62039e-05
1.39099e-05
4.79503e-05
-0.000227746
-4.45805e-05
-0.000340603
-0.00017716
0.00241262
-0.000177178
-0.000340599
-4.45798e-05
-0.000227747
0.000954894
7.04204e-05
0.0016616
0.00214666
-0.0116859
0.00214672
0.00166158
7.04188e-05
0.0009549
-0.00250196
0.000485185
-0.00679195
-0.0229971
0.0420623
-0.0229972
-0.00679185
0.000485184
-0.00250197
-0.0097525
-0.0046361
0.00939194
0.223767
0.593547
0.223766
0.00939172
-0.00463607
-0.00975251
0.00861875
-0.00762842
0.0763005
0.50632
0.876095
0.506318
0.0762996
-0.00762839
0.0086188
0.0342722
-0.00378672
0.136409
0.644717
0.956159
0.644715
0.136408
-0.00378673
0.0342723
0.0546229
0.0042746
0.175077
0.697275
0.969206
0.697272
0.175075
0.00427454
0.0546231
0.0687734
0.0139789
0.19849
0.711747
0.961055
0.711744
0.198487
0.0139788
0.0687737
0.0789589
0.0241146
0.213832
0.711142
0.946356
0.711139
0.21383
0.0241144
0.0789593
0.0870805
0.0342577
0.225313
0.705002
0.929881
0.704999
0.22531
0.0342575
0.0870808
0.0942656
0.0443149
0.235012
0.696726
0.912833
0.696723
0.235009
0.0443146
0.0942659
0.101157
0.0543335
0.243837
0.687359
0.895196
0.687356
0.243834
0.0543331
0.101157
0.108197
0.0644795
0.252243
0.676765
0.876272
0.676762
0.25224
0.0644791
0.108198
0.115785
0.0750198
0.260288
0.663503
0.85396
0.6635
0.260285
0.0750194
0.115786
0.124304
0.086658
0.268245
0.644837
0.824504
0.644835
0.268242
0.0866575
0.124304
0.133789
0.0994762
0.272021
0.609964
0.774264
0.609962
0.272019
0.0994758
0.13379
0.143243
0.116612
0.277845
0.556187
0.698604
0.556186
0.277843
0.116611
0.143243
0.148548
0.128704
0.223326
0.380589
0.466273
0.380588
0.223325
0.128704
0.148549
0.141258
0.135973
0.20789
0.320457
0.38974
0.320456
0.20789
0.135972
0.141259
0.105993
0.112655
0.253458
0.490917
0.591335
0.490916
0.253457
0.112654
0.105993
0.0421019
0.0340995
0.168823
0.583026
0.871209
0.583025
0.168823
0.0340994
0.0421019
1.19152e-13
1.32292e-13
1.7201e-13
2.65791e-14
-5.26112e-13
2.65925e-14
1.7201e-13
1.3229e-13
1.19149e-13
-1.01113e-13
-2.91958e-13
-6.07956e-13
2.0092e-12
8.73741e-12
2.00905e-12
-6.07976e-13
-2.91948e-13
-1.0111e-13
6.00779e-13
1.68533e-12
1.75565e-12
-2.25408e-11
-6.58679e-11
-2.25398e-11
1.7558e-12
1.68529e-12
6.00767e-13
-4.839e-12
-1.32465e-11
-9.55773e-12
1.64182e-10
4.14224e-10
1.64174e-10
-9.55961e-12
-1.32462e-11
-4.8389e-12
2.83586e-11
8.24527e-11
4.60798e-11
-1.02279e-09
-2.41576e-09
-1.02275e-09
4.60917e-11
8.24509e-11
2.8358e-11
-1.49445e-10
-4.74589e-10
-2.73445e-10
5.82661e-09
1.34486e-08
5.82637e-09
-2.73512e-10
-4.74578e-10
-1.49441e-10
7.18066e-10
2.58124e-09
1.77963e-09
-3.15749e-08
-7.27795e-08
-3.15737e-08
1.77998e-09
2.58118e-09