/*--------------------------------*- C++ -*----------------------------------*\
  =========                 |
  \\      /  F ield         | OpenFOAM: The Open Source CFD Toolbox
   \\    /   O peration     | Website:  https://openfoam.org
    \\  /    A nd           | Version:  6
     \\/     M anipulation  |
\*---------------------------------------------------------------------------*/
FoamFile
{
    version     2.0;
    format      ascii;
    class       volScalarField;
    location    "0.4";
    object      T;
}
// * * * * * * * * * * * * * * * * * * * * * * * * * * * * * * * * * * * * * //

dimensions      [0 0 0 1 0 0 0];

internalField   nonuniform List<scalar> 
3029
(
278.14
272.082
303.745
246.691
325.709
246.691
303.744
272.082
278.14
314.138
319.011
340.847
271.627
350.709
271.627
340.847
319.01
314.138
255.957
262.305
294.847
266.816
340.856
266.816
294.847
262.305
255.957
258.668
255.12
289.817
269.026
337.122
269.026
289.817
255.119
258.667
267.885
258.834
289.382
275.256
343.923
275.255
289.381
258.833
267.884
274.552
264.055
290.587
286.041
359.903
286.039
290.585
264.054
274.551
280.304
270.792
295.886
303.849
383.861
303.847
295.883
270.79
280.303
289.482
282.453
308.994
330.877
414.937
330.874
308.991
282.45
289.48
306.749
303.057
332.995
367.856
452.169
367.852
332.99
303.054
306.747
335.292
335.149
368.919
413.711
494.168
413.706
368.914
335.144
335.289
375.62
378.667
415.385
466.177
539.812
466.171
415.378
378.661
375.615
425.459
431.031
469.139
521.821
585.512
521.814
469.13
431.024
425.453
480.637
487.931
526.242
581.786
646.226
581.779
526.233
487.922
480.629
536.325
544.549
582.065
630.651
662.018
630.643
582.055
544.538
536.315
589.371
596.003
629.56
735.084
1125.95
735.074
629.549
595.991
589.36
639.146
640.047
657.089
638.985
640.101
638.978
657.078
640.034
639.134
702.341
710.136
648.978
377.861
486.897
377.858
648.968
710.122
702.328
770.114
765.872
575.804
250.057
464.253
250.056
575.797
765.856
770.098
815.448
781.521
509.134
203.717
379.392
203.716
509.128
781.505
815.433
842.184
784.33
479.469
202.846
398.861
202.846
479.465
784.316
842.169
858.957
785.961
471.819
214.384
414.215
214.383
471.816
785.948
858.941
870.705
788.361
473.861
228.269
420.419
228.268
473.858
788.349
870.689
879.392
790.97
479.779
242.463
422.685
242.461
479.776
790.958
879.376
885.628
793.081
487.36
257.121
424.202
257.12
487.357
793.07
885.612
889.531
794.2
495.878
272.934
426.639
272.932
495.876
794.19
889.516
891.064
793.912
504.979
290.624
431.014
290.622
504.977
793.902
891.05
890.213
791.825
514.549
311.06
438.435
311.058
514.547
791.815
890.2
887.237
787.279
522.983
333.449
448.265
333.447
522.981
787.27
887.224
883.763
781.313
534.833
362.649
466.926
362.647
534.831
781.305
883.752
883.718
774.631
535.047
378.96
472.215
378.959
535.045
774.623
883.708
901.176
792.278
590.983
465.684
568.277
465.683
590.981
792.272
901.166
933.819
840.054
699.871
575.974
678.287
575.972
699.869
840.049
933.81
961.19
885.983
671.799
534.294
595.465
534.292
671.798
885.979
961.183
1015.45
997.546
564.551
261.065
229.88
261.064
564.55
997.543
1015.44
272.082
257.013
316.384
260.642
288.977
260.641
316.383
257.013
272.082
319.01
349.299
411.859
302.581
307.477
302.58
411.858
349.298
319.01
262.305
289.228
356.137
305.248
317.517
305.247
356.136
289.228
262.305
255.12
264.269
323.16
304.459
329.754
304.458
323.158
264.268
255.119
258.834
259.761
310.197
309.647
348.276
309.645
310.195
259.759
258.832
264.055
263.171
309.066
323.208
373.742
323.206
309.063
263.169
264.053
270.792
271.672
317.496
346.052
405.614
346.049
317.492
271.669
270.789
282.453
287.135
336.089
378.141
442.841
378.137
336.084
287.131
282.449
303.057
312.328
365.499
418.37
484.058
418.365
365.493
312.323
303.053
335.149
348.637
405.053
464.693
527.67
464.687
405.046
348.631
335.143
378.667
395.159
452.544
514.567
572.23
514.56
452.535
395.151
378.66
431.031
448.953
504.63
565.156
615.651
565.148
504.62
448.943
431.022
487.931
505.678
557.374
614.818
661.102
614.81
557.363
505.667
487.92
544.548
560.231
605.912
656.826
691.429
656.817
605.899
560.219
544.536
596.002
607.167
643.235
696.469
794.738
696.46
643.221
607.153
595.989
640.046
642.84
660.063
659.863
657.825
659.855
660.049
642.825
640.032
710.135
680.564
649.302
558.901
901.511
558.895
649.289
680.548
710.119
765.87
707.721
613.048
484.515
1050.35
484.511
613.038
707.704
765.852
781.519
715.713
582.035
442.709
900.544
442.705
582.027
715.697
781.5
784.329
718.362
568.61
434.004
831.87
434
568.603
718.347
784.311
785.961
721.51
566.895
439.783
801.522
439.778
566.888
721.496
785.944
788.361
725.575
570.618
450.317
783.876
450.311
570.611
725.562
788.344
790.97
729.759
576.453
462.269
770.783
462.263
576.446
729.746
790.954
793.081
733.437
583.103
475.027
760.233
475.022
583.097
733.425
793.066
794.201
736.262
590.252
488.975
752.043
488.969
590.246
736.251
794.187
793.913
737.862
597.823
504.963
746.753
504.958
597.817
737.851
793.9
791.827
737.929
606.23
524.126
745.46
524.121
606.225
737.919
791.814
787.281
733.995
612.842
547.745
748.835
547.74
612.838
733.986
787.269
781.315
728.347
628.109
575.699
757.247
575.695
628.105
728.34
781.305
774.633
692.891
573.281
582.123
727.335
582.12
573.277
692.885
774.624
792.281
693.621
811.399
711.307
847.874
711.304
811.396
693.617
792.273
840.057
725.581
896.258
776.073
905.211
776.071
896.255
725.577
840.051
885.985
824.682
933.593
865.177
966.021
865.175
933.591
824.68
885.98
997.548
1131.81
1125.81
927.382
869.433
927.38
1125.81
1131.81
997.545
303.744
316.384
347.271
315.141
335.813
315.139
347.27
316.383
303.744
340.847
411.858
440.189
357.884
352.83
357.883
440.188
411.857
340.846
294.848
356.137
418.875
371.884
370.997
371.882
418.872
356.135
294.847
289.817
323.16
390.909
379.962
393.288
379.96
390.906
323.158
289.816
289.382
310.196
377.507
394.023
421.307
394.02
377.503
310.194
289.38
290.587
309.066
378.871
416.783
454.494
416.779
378.866
309.062
290.584
295.886
317.495
392.92
447.343
491.316
447.338
392.914
317.491
295.882
308.994
336.088
417.752
483.652
530.072
483.646
417.744
336.082
308.989
332.994
365.499
451.363
523.457
569.231
523.45
451.354
365.491
332.988
368.919
405.052
491.419
564.667
607.529
564.66
491.409
405.044
368.911
415.384
452.543
535.284
605.456
643.979
605.448
535.273
452.533
415.375
469.137
504.629
580.125
644.153
677.628
644.144
580.112
504.617
469.126
526.241
557.373
622.877
679.177
708.238
679.169
622.864
557.36
526.228
582.063
605.91
659.64
707.701
732.467
707.692
659.626
605.895
582.05
629.558
643.233
685.341
726.924
759.315
726.915
685.327
643.217
629.543
657.086
660.061
694.496
723.518
729.877
723.51
694.483
660.045
657.071
648.975
649.3
698.857
719.742
920.068
719.735
698.844
649.284
648.959
575.802
613.046
696.387
717.568
1191.58
717.56
696.374
613.032
575.789
509.131
582.033
686.683
707.352
1222.12
707.344
686.671
582.021
509.122
479.467
568.609
680.395
704.349
1196.95
704.339
680.384
568.597
479.459
471.819
566.894
678.881
708.261
1167
708.252
678.87
566.882
471.811
473.861
570.617
680.27
715.62
1140.22
715.611
680.259
570.606
473.853
479.779
576.453
682.984
724.257
1116.6
724.247
682.975
576.443
479.772
487.361
583.103
686.364
733.273
1095.09
733.264
686.355
583.094
487.353
495.88
590.253
690.309
742.722
1075.13
742.714
690.3
590.243
495.873
504.982
597.825
695.381
753.68
1057.03
753.672
695.372
597.816
504.975
514.552
606.232
701.605
767.008
1040.99
767
701.597
606.225
514.546
522.987
612.845
716.586
793.111
1035.16
793.104
716.579
612.838
522.981
534.837
628.111
732.413
818.669
1027.99
818.664
732.407
628.106
534.832
535.051
573.283
910.164
1059.88
1208.69
1059.88
910.156
573.278
535.048
590.988
811.403
1792.22
1168.88
1328.83
1168.88
1792.22
811.399
590.985
699.877
896.261
896.259
699.873
671.804
933.596
613.438
578.855
686.359
578.854
613.437
933.594
671.803
564.555
1125.82
897.767
820.563
817.909
820.562
897.767
1125.82
564.554
811.168
759.011
751.474
759.01
811.168
816.065
754.711
746.871
754.71
816.065
826.197
759.207
750.373
759.207
826.197
832.173
764.428
755.038
764.427
832.173
835.296
769.179
759.77
769.179
835.296
837.163
773.593
764.481
773.592
837.163
838.553
777.806
769.134
777.805
838.554
839.78
781.889
773.719
781.889
839.781
840.953
785.859
778.209
785.859
840.954
842.127
789.807
782.698
789.807
842.128
843.174
793.216
786.571
793.216
843.175
844.975
798.861
793.018
798.862
844.977
246.691
260.641
315.14
390.404
479.735
390.401
315.139
260.64
246.691
271.627
302.58
357.883
415.765
492.158
415.761
357.881
302.578
271.626
266.816
305.247
371.882
437.503
508.293
437.499
371.878
305.245
266.815
269.025
304.458
379.96
460.022
528.663
460.017
379.956
304.455
269.024
275.255
309.645
394.021
486.822
553.059
486.816
394.015
309.642
275.253
286.04
323.206
416.78
517.87
580.186
517.864
416.773
323.202
286.037
303.848
346.05
447.34
551.535
608.5
551.528
447.332
346.045
303.844
330.876
378.139
483.649
586.006
636.722
585.999
483.639
378.132
330.871
367.854
418.367
523.453
619.852
663.963
619.845
523.443
418.359
367.847
413.708
464.689
564.664
652.093
689.658
652.086
564.653
464.68
413.701
466.173
514.563
605.453
682.054
713.427
682.046
605.44
514.552
466.164
521.817
565.152
644.149
709.144
734.895
709.135
644.135
565.14
521.805
581.783
614.813
679.174
732.666
753.69
732.657
679.161
614.799
581.77
630.647
656.821
707.697
751.479
769.149
751.471
707.684
656.806
630.634
735.079
696.464
726.921
764.952
783.137
764.944
726.907
696.448
735.063
638.981
659.858
723.515
772.501
793.07
772.493
723.501
659.844
638.967
377.859
558.898
719.739
793.651
848.39
793.643
719.726
558.888
377.854
250.056
484.513
717.566
819.698
949.123
819.689
717.553
484.507
250.056
203.717
442.707
707.35
830.671
1002.61
830.663
707.339
442.702
203.717
202.846
434.003
704.346
835.79
1022.06
835.782
704.335
433.997
202.847
214.384
439.782
708.259
840.587
1027.07
840.579
708.247
439.776
214.384
228.269
450.315
715.618
846.1
1027.01
846.092
715.608
450.31
228.268
242.463
462.268
724.255
851.978
1025.2
851.97
724.245
462.262
242.462
257.121
475.026
733.271
858.184
1022.71
858.177
733.261
475.021
257.12
272.933
488.974
742.72
864.887
1019.98
864.88
742.711
488.968
272.932
290.624
504.962
753.678
873.006
1017.7
873
753.669
504.957
290.622
311.06
524.126
767.006
884.233
1017.07
884.227
766.998
524.121
311.058
333.449
547.745
793.109
905.537
1022.71
905.532
793.103
547.74
333.448
362.649
575.699
818.669
938.047
1034.43
938.043
818.663
575.695
362.648
378.962
582.124
1059.88
1064.39
1094.89
1064.39
1059.88
582.121
378.96
465.686
711.309
1168.88
665.99
722.845
665.99
1168.88
711.306
465.685
575.977
776.075
776.075
575.975
534.298
865.181
578.857
453.879
523.544
453.878
578.856
865.18
534.297
261.068
927.389
820.568
745.827
741.262
745.825
820.567
927.39
261.068
759.015
723.353
723.65
723.351
759.015
754.715
705.141
703.826
705.139
754.715
759.212
699.85
695.233
699.849
759.212
764.432
700.561
693.148
700.56
764.432
769.184
703.337
693.782
703.336
769.184
773.597
706.777
695.482
706.775
773.597
777.81
710.393
697.583
710.393
777.81
781.893
714.039
699.851
714.038
781.894
785.863
717.636
702.171
717.636
785.864
789.811
721.283
704.631
721.282
789.811
793.22
724.383
706.696
724.382
793.22
798.865
729.825
710.67
729.825
798.866
325.709
288.975
335.81
479.73
608.754
479.725
335.807
288.975
325.709
350.709
307.476
352.827
492.153
613.956
492.148
352.824
307.474
350.707
340.855
317.515
370.994
508.288
620.175
508.283
370.99
317.513
340.853
337.12
329.752
393.284
528.659
629.015
528.653
393.279
329.749
337.117
343.921
348.273
421.302
553.054
641.148
553.047
421.297
348.27
343.918
359.901
373.738
454.487
580.181
656.041
580.174
454.481
373.734
359.897
383.858
405.609
491.309
608.496
672.729
608.489
491.302
405.604
383.853
414.933
442.836
530.065
636.716
690.305
636.709
530.057
442.83
414.928
452.164
484.052
569.224
663.957
708.066
663.95
569.215
484.045
452.158
494.162
527.664
607.523
689.654
725.5
689.647
607.513
527.656
494.155
539.806
572.223
643.972
713.423
742.186
713.416
643.962
572.214
539.798
585.505
615.643
677.622
734.891
757.7
734.884
677.61
615.633
585.495
646.219
661.094
708.232
753.687
771.64
753.68
708.219
661.083
646.209
662.011
691.421
732.461
769.146
783.847
769.138
732.449
691.41
662.001
1125.94
794.731
759.309
783.134
796.171
783.127
759.298
794.718
1125.92
640.096
657.819
729.872
793.068
814.38
793.06
729.86
657.807
640.085
486.897
901.508
920.061
848.387
857.929
848.378
920.048
901.502
486.897
464.253
1050.35
1191.57
949.119
913.196
949.11
1191.56
1050.35
464.254
379.393
900.544
1222.11
1002.61
948.112
1002.6
1222.1
900.542
379.393
398.862
831.871
1196.95
1022.06
966.762
1022.05
1196.93
831.868
398.862
414.215
801.523
1166.99
1027.07
977.694
1027.06
1166.98
801.519
414.215
420.42
783.878
1140.22
1027.01
985.479
1027
1140.21
783.874
420.42
422.686
770.785
1116.6
1025.2
991.779
1025.2
1116.59
770.782
422.686
424.203
760.235
1095.1
1022.71
997.103
1022.7
1095.09
760.232
424.202
426.64
752.046
1075.13
1019.98
1001.76
1019.97
1075.12
752.042
426.64
431.016
746.757
1057.04
1017.7
1006.42
1017.7
1057.03
746.753
431.015
438.437
745.465
1040.99
1017.07
1012.41
1017.06
1040.98
745.461
438.436
448.268
748.841
1035.16
1022.71
1023.3
1022.7
1035.16
748.838
448.267
466.93
757.254
1028
1034.43
1038.61
1034.43
1028
757.251
466.929
472.219
727.342
1208.7
1094.89
1068.85
1094.88
1208.69
727.34
472.218
568.283
847.881
1328.84
722.846
794.227
722.846
1328.83
847.88
568.283
678.293
905.219
905.218
678.294
595.472
966.03
686.365
523.548
488.03
523.552
686.369
966.031
595.472
229.883
869.443
817.918
741.268
639.984
741.272
817.92
869.443
229.884
751.482
723.657
647.307
723.659
751.481
746.879
703.832
635.108
703.834
746.877
750.382
695.239
627.619
695.241
750.38
755.047
693.154
625.266
693.156
755.045
759.779
693.789
625.582
693.79
759.777
764.49
695.488
627.086
695.49
764.488
769.142
697.589
629.094
697.591
769.141
773.727
699.857
631.35
699.859
773.725
778.217
702.177
633.699
702.179
778.215
782.706
704.637
636.326
704.639
782.704
786.579
706.702
638.399
706.704
786.577
793.026
710.675
643.017
710.677
793.025
246.691
260.641
315.138
390.396
479.722
390.394
315.137
260.64
246.691
271.627
302.579
357.881
415.757
492.145
415.755
357.88
302.578
271.627
266.815
305.246
371.88
437.495
508.279
437.493
371.877
305.245
266.815
269.025
304.457
379.957
460.013
528.649
460.01
379.954
304.455
269.024
275.254
309.643
394.016
486.811
553.044
486.808
394.013
309.641
275.253
286.037
323.203
416.774
517.858
580.171
517.854
416.77
323.201
286.036
303.844
346.045
447.332
551.523
608.486
551.518
447.327
346.042
303.842
330.87
378.132
483.64
585.992
636.706
585.987
483.634
378.128
330.868
367.847
418.359
523.443
619.838
663.947
619.832
523.436
418.355
367.844
413.701
464.68
564.653
652.08
689.644
652.073
564.645
464.675
413.696
466.164
514.553
605.44
682.041
713.413
682.034
605.431
514.547
466.16
521.805
565.141
644.135
709.13
734.882
709.122
644.126
565.134
521.801
581.771
614.801
679.16
732.652
753.678
732.644
679.15
614.793
581.764
630.636
656.808
707.685
751.467
769.137
751.459
707.675
656.8
630.628
735.066
696.451
726.909
764.941
783.125
764.933
726.899
696.443
735.057
638.971
659.848
723.503
772.49
793.058
772.483
723.493
659.84
638.964
377.856
558.891
719.728
793.639
848.377
793.632
719.719
558.885
377.853
250.056
484.509
717.556
819.686
949.109
819.679
717.547
484.505
250.055
203.717
442.704
707.342
830.661
1002.6
830.654
707.334
442.701
203.717
202.846
433.999
704.338
835.78
1022.05
835.773
704.331
433.996
202.847
214.384
439.779
708.251
840.577
1027.06
840.571
708.245
439.776
214.384
228.269
450.313
715.612
846.092
1027
846.086
715.606
450.309
228.269
242.463
462.266
724.25
851.97
1025.19
851.965
724.243
462.263
242.463
257.121
475.025
733.268
858.178
1022.7
858.172
733.261
475.023
257.121
272.934
488.974
742.719
864.882
1019.97
864.877
742.712
488.971
272.934
290.625
504.964
753.678
873.004
1017.7
872.998
753.673
504.96
290.624
311.061
524.128
767.008
884.232
1017.06
884.228
767.003
524.125
311.06
333.451
547.748
793.114
905.538
1022.71
905.535
793.109
547.745
333.45
362.652
575.704
818.675
938.05
1034.43
938.047
818.671
575.701
362.651
378.965
582.13
1059.89
1064.39
1094.89
1064.39
1059.89
582.128
378.964
465.69
711.315
1168.89
665.993
722.848
665.991
1168.88
711.314
465.69
575.981
776.083
776.083
575.981
534.301
865.188
578.862
453.885
523.556
453.886
578.864
865.188
534.3
261.068
927.396
820.574
745.836
741.277
745.837
820.574
927.393
261.068
759.021
723.361
723.664
723.361
759.019
754.721
705.149
703.839
705.149
754.718
759.218
699.859
695.246
699.859
759.215
764.438
700.57
693.161
700.57
764.435
769.19
703.346
693.795
703.346
769.187
773.603
706.785
695.494
706.785
773.601
777.816
710.402
697.595
710.402
777.813
781.9
714.047
699.863
714.047
781.897
785.87
717.644
702.183
717.645
785.868
789.817
721.291
704.643
721.291
789.815
793.227
724.391
706.708
724.391
793.224
798.872
729.834
710.681
729.834
798.87
303.744
316.383
347.269
315.136
335.805
315.137
347.268
316.383
303.744
340.846
411.857
440.186
357.879
352.821
357.879
440.186
411.857
340.846
294.847
356.135
418.87
371.877
370.988
371.877
418.87
356.134
294.847
289.816
323.157
390.904
379.954
393.277
379.953
390.903
323.156
289.816
289.379
310.193
377.501
394.013
421.295
394.012
377.5
310.192
289.379
290.584
309.061
378.863
416.77
454.479
416.769
378.861
309.06
290.583
295.881
317.489
392.909
447.328
491.3
447.327
392.907
317.487
295.88
308.988
336.08
417.739
483.635
530.055
483.633
417.736
336.078
308.987
332.987
365.489
451.349
523.438
569.213
523.436
451.345
365.487
332.985
368.909
405.041
491.402
564.648
607.51
564.644
491.398
405.038
368.907
415.372
452.53
535.265
605.435
643.96
605.431
535.26
452.526
415.37
469.124
504.613
580.105
644.13
677.608
644.125
580.099
504.609
469.121
526.225
557.355
622.857
679.155
708.217
679.15
622.851
557.351
526.222
582.048
605.891
659.62
707.68
732.447
707.675
659.614
605.887
582.043
629.542
643.215
685.322
726.904
759.297
726.899
685.315
643.21
629.537
657.071
660.044
694.478
723.498
729.859
723.494
694.47
660.038
657.066
648.962
649.284
698.839
719.724
920.048
719.719
698.833
649.279
648.957
575.793
613.033
696.37
717.552
1191.56
717.547
696.365
613.027
575.788
509.126
582.023
686.669
707.338
1222.1
707.333
686.663
582.017
509.121
479.462
568.6
680.382
704.336
1196.94
704.331
680.377
568.594
479.458
471.814
566.885
678.869
708.25
1166.99
708.244
678.864
566.88
471.81
473.856
570.609
680.258
715.61
1140.21
715.605
680.254
570.604
473.852
479.775
576.446
682.974
724.248
1116.59
724.242
682.969
576.441
479.77
487.356
583.097
686.355
733.266
1095.09
733.26
686.35
583.091
487.352
495.875
590.246
690.301
742.716
1075.12
742.711
690.297
590.242
495.872
504.977
597.82
695.375
753.676
1057.03
753.671
695.371
597.815
504.973
514.547
606.228
701.601
767.006
1040.98
767.001
701.598
606.223
514.543
522.982
612.841
716.585
793.111
1035.16
793.107
716.581
612.838
522.979
534.833
628.11
732.414
818.673
1028
818.67
732.41
628.107
534.831
535.048
573.283
910.169
1059.89
1208.7
1059.89
910.166
573.28
535.046
590.986
811.407
1792.23
1168.89
1328.84
1168.89
1792.23
811.405
590.984
699.875
896.267
896.267
699.873
671.804
933.603
613.445
578.865
686.372
578.865
613.443
933.602
671.803
564.556
1125.83
897.777
820.577
817.924
820.576
897.776
1125.83
564.555
811.178
759.022
751.485
759.021
811.177
816.075
754.721
746.882
754.72
816.074
826.207
759.218
750.384
759.217
826.207
832.183
764.438
755.049
764.437
832.183
835.306
769.19
759.781
769.189
835.306
837.173
773.604
764.492
773.602
837.173
838.564
777.816
769.145
777.815
838.564
839.791
781.9
773.73
781.899
839.79
840.964
785.87
778.219
785.869
840.964
842.138
789.818
782.709
789.817
842.138
843.185
793.227
786.582
793.226
843.184
844.987
798.872
793.029
798.872
844.986
272.082
257.013
316.383
260.64
288.974
260.64
316.383
257.013
272.082
319.01
349.298
411.857
302.578
307.474
302.578
411.857
349.298
319.01
262.305
289.227
356.134
305.244
317.513
305.245
356.134
289.227
262.304
255.119
264.268
323.157
304.455
329.748
304.455
323.156
264.267
255.119
258.832
259.758
310.192
309.641
348.269
309.641
310.192
259.758
258.831
264.052
263.167
309.061
323.2
373.732
323.2
309.06
263.167
264.051
270.788
271.666
317.488
346.042
405.602
346.041
317.487
271.665
270.787
282.448
287.128
336.08
378.129
442.828
378.128
336.078
287.127
282.447
303.052
312.321
365.488
418.355
484.042
418.354
365.487
312.319
303.05
335.141
348.628
405.04
464.677
527.653
464.675
405.038
348.626
335.139
378.658
395.148
452.529
514.549
572.212
514.547
452.526
395.146
378.655
431.02
448.939
504.612
565.137
615.632
565.134
504.609
448.936
431.017
487.918
505.662
557.354
614.797
661.082
614.794
557.351
505.659
487.914
544.534
560.215
605.89
656.803
691.409
656.8
605.887
560.211
544.53
595.987
607.149
643.214
696.446
794.717
696.443
643.21
607.145
595.982
640.029
642.82
660.042
659.843
657.807
659.841
660.039
642.816
640.024
710.117
680.544
649.282
558.887
901.502
558.886
649.279
680.539
710.111
765.852
707.701
613.03
484.507
1050.35
484.505
613.028
707.696
765.845
781.502
715.694
582.02
442.702
900.542
442.701
582.018
715.69
781.495
784.313
718.344
568.597
433.998
831.869
433.996
568.595
718.34
784.306
785.945
721.494
566.882
439.778
801.521
439.776
566.881
721.489
785.939
788.346
725.561
570.606
450.311
783.876
450.309
570.605
725.556
788.34
790.956
729.746
576.444
462.264
770.785
462.262
576.442
729.742
790.951
793.068
733.426
583.095
475.025
760.235
475.021
583.093
733.422
793.063
794.19
736.253
590.245
488.973
752.045
488.97
590.244
736.248
794.185
793.903
737.853
597.818
504.962
746.756
504.959
597.817
737.85
793.899
791.818
737.922
606.227
524.127
745.465
524.124
606.225
737.919
791.814
787.274
733.99
612.841
547.747
748.842
547.745
612.84
733.987
787.27
781.309
728.345
628.11
575.703
757.255
575.701
628.109
728.342
781.306
774.629
692.89
573.283
582.13
727.344
582.128
573.282
692.888
774.627
792.278
693.623
811.408
711.315
847.884
711.314
811.407
693.622
792.277
840.057
725.585
896.268
776.083
905.222
776.083
896.268
725.584
840.055
885.988
824.689
933.604
865.189
966.036
865.189
933.603
824.687
885.987
997.555
1131.82
1125.83
927.399
869.448
927.397
1125.83
1131.82
997.557
278.14
272.082
303.744
246.69
325.708
246.69
303.744
272.082
278.14
314.138
319.01
340.846
271.626
350.707
271.626
340.846
319.01
314.138
255.957
262.305
294.847
266.814
340.852
266.815
294.847
262.304
255.956
258.667
255.119
289.816
269.024
337.117
269.024
289.816
255.119
258.666
267.884
258.832
289.379
275.253
343.917
275.253
289.379
258.831
267.883
274.549
264.052
290.583
286.036
359.895
286.036
290.583
264.051
274.548
280.301
270.788
295.881
303.843
383.852
303.842
295.88
270.787
280.299
289.479
282.448
308.988
330.868
414.926
330.868
308.987
282.447
289.477
306.745
303.051
332.986
367.845
452.156
367.844
332.985
303.05
306.743
335.286
335.141
368.908
413.698
494.154
413.697
368.907
335.139
335.284
375.612
378.657
415.372
466.162
539.797
466.16
415.37
378.655
375.609
425.449
431.02
469.123
521.803
585.495
521.801
469.121
431.017
425.446
480.626
487.918
526.224
581.767
646.208
581.765
526.222
487.914
480.622
536.312
544.534
582.046
630.63
662.001
630.628
582.043
544.53
536.307
589.357
595.986
629.54
735.06
1125.92
735.058
629.536
595.982
589.353
639.131
640.029
657.069
638.967
640.085
638.964
657.066
640.024
639.126
702.325
710.116
648.959
377.854
486.897
377.854
648.957
710.111
702.319
770.096
765.851
575.79
250.056
464.254
250.055
575.789
765.846
770.09
815.43
781.5
509.122
203.717
379.393
203.717
509.122
781.496
815.424
842.166
784.311
479.459
202.847
398.862
202.847
479.459
784.307
842.16
858.939
785.943
471.811
214.384
414.215
214.384
471.811
785.94
858.933
870.688
788.344
473.853
228.269
420.42
228.268
473.853
788.341
870.682
879.377
790.954
479.772
242.463
422.686
242.462
479.772
790.952
879.37
885.614
793.067
487.353
257.121
424.203
257.12
487.354
793.064
885.609
889.519
794.188
495.873
272.934
426.64
272.933
495.874
794.186
889.514
891.053
793.902
504.975
290.624
431.016
290.624
504.976
793.9
891.048
890.204
791.818
514.546
311.061
438.437
311.06
514.546
791.816
890.2
887.229
787.274
522.982
333.451
448.268
333.45
522.982
787.272
887.226
883.758
781.309
534.834
362.651
466.931
362.651
534.834
781.308
883.755
883.715
774.629
535.049
378.964
472.221
378.964
535.049
774.629
883.713
901.175
792.279
590.988
465.691
568.286
465.69
590.987
792.279
901.173
933.82
840.058
699.877
575.982
678.297
575.981
699.877
840.058
933.818
961.193
885.988
671.807
534.302
595.476
534.301
671.806
885.988
961.192
1015.46
997.559
564.559
261.07
229.885
261.069
564.559
997.561
1015.46
)
;

boundaryField
{
    injectionXMinus
    {
        type            uniformFixedValue;
        uniformValue    uniform 400;
        value           uniform 400;
    }
    injectionXPlus
    {
        type            uniformFixedValue;
        uniformValue    uniform 400;
        value           uniform 400;
    }
    injectionYMinus
    {
        type            uniformFixedValue;
        uniformValue    uniform 400;
        value           uniform 400;
    }
    injectionYPlus
    {
        type            uniformFixedValue;
        uniformValue    uniform 400;
        value           uniform 400;
    }
    inletXMinus
    {
        type            uniformFixedValue;
        uniformValue    uniform 293.15;
        value           uniform 293.15;
    }
    inletXPlus
    {
        type            uniformFixedValue;
        uniformValue    uniform 293.15;
        value           uniform 293.15;
    }
    inletYMinus
    {
        type            uniformFixedValue;
        uniformValue    uniform 293.15;
        value           uniform 293.15;
    }
    inletYPlus
    {
        type            uniformFixedValue;
        uniformValue    uniform 293.15;
        value           uniform 293.15;
    }
    outlet
    {
        type            zeroGradient;
    }
    valve
    {
        type            zeroGradient;
    }
    walls
    {
        type            zeroGradient;
    }
}


// ************************************************************************* //
