/*--------------------------------*- C++ -*----------------------------------*\
  =========                 |
  \\      /  F ield         | OpenFOAM: The Open Source CFD Toolbox
   \\    /   O peration     | Website:  https://openfoam.org
    \\  /    A nd           | Version:  6
     \\/     M anipulation  |
\*---------------------------------------------------------------------------*/
FoamFile
{
    version     2.0;
    format      ascii;
    class       surfaceScalarField;
    location    "0";
    object      phi;
}
// * * * * * * * * * * * * * * * * * * * * * * * * * * * * * * * * * * * * * //

dimensions      [0 3 -1 0 0 0 0];

internalField   nonuniform List<scalar> 
8239
(
0.0702973
0.0594055
0.0702972
0.0575519
0.0480973
0.0646479
0.0669835
0.0377701
0.0527981
0.0188827
0.0272454
0.0208553
-0.0188829
0.0239235
0.013842
-0.0669837
0.0272453
0.0208553
-0.057552
0.0377701
0.0527981
-0.0702973
0.0480972
0.0646479
0.0594054
0.0702972
0.058989
0.141427
0.058989
0.0472247
0.105419
0.054442
0.0564587
0.0837346
0.0448012
0.0155608
0.0508428
0.0173002
-0.0155611
0.0434898
0.0115554
-0.056459
0.0508428
0.0173002
-0.0472249
0.0837346
0.0448012
-0.0589891
0.105419
0.054442
0.141427
0.058989
0.022981
0.0954651
0.022981
0.0255401
0.08223
0.0206299
0.023567
0.0693425
0.016365
0.00820779
0.0566559
0.00954578
-0.00820804
0.0525184
0.00738701
-0.0235672
0.0566559
0.00954578
-0.0255403
0.0693425
0.016365
-0.0229811
0.0822299
0.0206299
0.0954651
0.0229809
0.00974587
0.0759732
0.00974583
0.0126526
0.0706068
0.00871615
0.0108804
0.0641012
0.00701318
0.0040702
0.0584526
0.00501327
-0.00407046
0.0563891
0.00426968
-0.0108806
0.0584526
0.00501327
-0.0126528
0.0641012
0.00701318
-0.00974592
0.0706067
0.00871615
0.0759732
0.0097458
0.00437939
0.0672143
0.00437934
0.00614712
0.0648803
0.00395842
0.00523179
0.0617222
0.00329409
0.00200667
0.0590494
0.00262806
-0.00200694
0.0580354
0.00236706
-0.00523202
0.0590494
0.00262806
-0.00614729
0.0617222
0.00329409
-0.00437944
0.0648803
0.00395842
0.0672143
0.00437932
0.00204535
0.0631235
0.0020453
0.00298904
0.0620581
0.00187817
0.00255902
0.060532
0.00162
0.000992637
0.0592355
0.00138006
-0.000992903
0.0587358
0.00128496
-0.00255925
0.0592355
0.00138006
-0.00298921
0.060532
0.00162
-0.0020454
0.0620581
0.00187816
0.0631235
0.00204528
0.000979974
0.0611634
0.000979934
0.00146286
0.0606605
0.000914445
0.00126256
0.0599178
0.000814183
0.000492876
0.0592808
0.000724141
-0.000493144
0.0590331
0.000688468
-0.0012628
0.0592808
0.000724142
-0.00146304
0.0599178
0.000814184
-0.000980028
0.0606605
0.000914443
0.0611634
0.00097991
0.000477047
0.0602092
0.00047701
0.000720188
0.0599653
0.000451805
0.000625543
0.0595989
0.000413344
0.000245139
0.0592817
0.00037931
-0.000245405
0.0591576
0.000365857
-0.000625777
0.0592817
0.000379311
-0.000720358
0.0595989
0.000413345
-0.000477102
0.0599653
0.000451803
0.0602092
0.000476987
0.000233116
0.0597429
0.000233083
0.000353792
0.05962
0.000224321
0.000308333
0.0594331
0.000210988
0.000121011
0.0592695
0.000199282
-0.000121275
0.059205
0.000194673
-0.000308565
0.0592695
0.000199284
-0.000353961
0.0594331
0.00021099
-0.000233173
0.05962
0.00022432
0.0597429
0.000233064
0.000110278
0.0595222
0.000110249
0.000166897
0.0594536
0.000109605
0.000144707
0.0593464
0.000108712
5.64737e-05
0.0592495
0.000108053
-5.67323e-05
0.0592101
0.000107855
-0.000144933
0.0592495
0.000108054
-0.000167061
0.0593464
0.000108713
-0.000110335
0.0594536
0.000109603
0.0595222
0.00011023
4.16465e-05
0.0594388
4.16214e-05
5.9731e-05
0.0593869
4.83503e-05
4.77961e-05
0.0592992
5.89274e-05
1.71235e-05
0.0592112
6.87829e-05
-1.73759e-05
0.0591715
7.29968e-05
-4.80176e-05
0.0592112
6.87842e-05
-5.98927e-05
0.0592992
5.89298e-05
-4.17041e-05
0.0593869
4.83511e-05
0.0594388
4.16064e-05
-1.02457e-05
0.0594592
-1.02666e-05
-2.79608e-05
0.0593948
9.64852e-06
-4.02185e-05
0.0592701
4.12035e-05
-2.25978e-05
0.0591219
7.15466e-05
2.23537e-05
0.0590411
8.53137e-05
4.00047e-05
0.0591219
7.15476e-05
2.78059e-05
0.0592701
4.12049e-05
1.01899e-05
0.0593948
9.64774e-06
0.0594592
-1.02816e-05
-7.46648e-05
0.0596084
-7.46814e-05
-0.00015264
0.0594975
-2.49902e-05
-0.000188441
0.0592503
5.54198e-05
-0.000103402
0.0588984
0.000138314
0.000103167
0.058653
0.000181332
0.000188235
0.0588984
0.000138315
0.00015249
0.0592503
5.54224e-05
7.46083e-05
0.0594976
-2.49885e-05
0.0596084
-7.46919e-05
-0.000185539
0.0599794
-0.000185551
-0.000399877
0.0597798
-6.80975e-05
-0.000540383
0.0592617
0.000129001
-0.000348738
0.0583479
0.000358725
0.000348515
0.0574447
0.000511003
0.000540188
0.0583479
0.000358726
0.000399736
0.0592617
0.000129003
0.000185486
0.0597799
-6.80977e-05
0.0599794
-0.000185562
-0.000385132
0.0607496
-0.000385139
-0.000918025
0.0604368
-0.000124276
-0.00145419
0.0594576
0.000340081
-0.00125195
0.0571451
0.00100041
0.00125174
0.0532964
0.00164448
0.001454
0.0571451
0.00100041
0.00091789
0.0594576
0.000340084
0.000385078
0.0604369
-0.000124273
0.0607496
-0.000385145
-0.000697882
0.0621453
-0.000697885
-0.00189724
0.0618149
-0.000178837
-0.0037667
0.060495
0.000832003
-0.00510065
0.0557181
0.00276089
0.00510045
0.0370894
0.00600585
0.00376653
0.0557181
0.00276089
0.00189712
0.060495
0.000832004
0.000697833
0.061815
-0.000178836
0.0621453
-0.000697892
-0.00102825
0.0642017
-0.00102825
-0.00321717
0.0642002
-0.00019648
-0.00854362
0.0641979
0.00162343
-0.0237293
0.0641959
0.00670781
0.0237292
0.0641951
0.0254357
0.00854346
0.0641959
0.00670781
0.00321705
0.0641979
0.00162344
0.0010282
0.0642002
-0.000196477
0.0642018
-0.00102825
-0.00102975
0.0662612
-0.00102974
-0.00321946
0.0665878
-0.000197991
-0.00854563
0.0679021
0.00162189
-0.0237301
0.0726741
0.00670624
0.02373
0.0913009
0.0254341
0.00854549
0.0726741
0.00670624
0.00321935
0.0679022
0.00162189
0.00102971
0.0665879
-0.00019799
0.0662612
-0.00102974
-0.000703064
0.0676672
-0.000703052
-0.00190515
0.0679739
-0.000184073
-0.00377365
0.0689439
0.000826656
-0.00510338
0.0712483
0.00275545
0.00510323
0.0750939
0.00600037
0.00377353
0.0712484
0.00275545
0.00190506
0.068944
0.000826658
0.000703021
0.067974
-0.000184069
0.0676673
-0.000703049
-0.000396344
0.0684599
-0.000396327
-0.00093516
0.0686484
-0.000135652
-0.00146923
0.0691496
0.000328404
-0.00125786
0.0700485
0.000988466
0.00125773
0.0709459
0.00163243
0.00146912
0.0700485
0.000988467
0.000935082
0.0691496
0.000328405
0.000396307
0.0686484
-0.00013565
0.0684599
-0.000396324
-0.000207828
0.0688755
-0.000207805
-0.00043396
0.0689653
-9.08479e-05
-0.000570315
0.0691804
0.00010548
-0.000360516
0.0695042
0.000334525
0.000360411
0.0697384
0.000486535
0.000570224
0.0695042
0.000334526
0.000433893
0.0691805
0.000105483
0.000207792
0.0689654
-9.08427e-05
0.0688755
-0.000207797
-0.000117957
0.0691114
-0.000117929
-0.000218856
0.0691358
-6.95136e-05
-0.000246588
0.0691993
8.92452e-06
-0.000126301
0.0692938
9.00893e-05
0.000126219
0.0693535
0.000132427
0.000246518
0.0692939
9.00904e-05
0.000218806
0.0691993
8.92632e-06
0.000117928
0.0691358
-6.95105e-05
0.0691114
-0.000117921
-9.35379e-05
0.0692984
-9.35039e-05
-0.000155359
0.0692745
-7.68596e-05
-0.00015204
0.0692463
-5.03297e-05
-6.66476e-05
0.0692329
-2.43822e-05
6.65884e-05
0.0692326
-1.23418e-05
0.000151989
0.0692329
-2.43807e-05
0.000155322
0.0692464
-5.03263e-05
9.35113e-05
0.0692746
-7.68534e-05
0.0692985
-9.34909e-05
-0.000117449
0.0695333
-0.000117409
-0.000183531
0.0694597
-0.000119028
-0.000165508
0.0693497
-0.000121269
-6.68725e-05
0.0692569
-0.000122574
6.68377e-05
0.0692217
-0.000122728
0.000165479
0.0692569
-0.000122573
0.000183512
0.0693497
-0.000121267
0.000117429
0.0694598
-0.000119024
0.0695334
-0.000117396
-0.000191063
0.0699154
-0.000191017
-0.000293574
0.0697752
-0.000212921
-0.000258278
0.069561
-0.000246521
-0.000102014
0.0693761
-0.000275449
0.000102004
0.0693044
-0.000286633
0.00025827
0.0693762
-0.000275447
0.000293569
0.069561
-0.000246517
0.000191046
0.0697753
-0.000212914
0.0699155
-0.000190999
-0.000331269
0.070578
-0.000331218
-0.000507831
0.0703458
-0.000393847
-0.000443084
0.069987
-0.000490717
-0.000173722
0.0696806
-0.000573658
0.000173737
0.0695627
-0.000605617
0.000443099
0.0696806
-0.000573657
0.000507844
0.0699871
-0.000490715
0.000331259
0.0703458
-0.000393842
0.070578
-0.000331201
-0.000563485
0.0717049
-0.00056343
-0.000866538
0.0713725
-0.000723594
-0.00074956
0.0708456
-0.000975441
-0.000291567
0.0704096
-0.00118692
0.000291607
0.0702468
-0.00126709
0.000749597
0.0704097
-0.00118692
0.000866565
0.0708457
-0.000975437
0.000563478
0.0713726
-0.000723586
0.071705
-0.000563407
-0.000895891
0.0734968
-0.000895832
-0.00139344
0.0731608
-0.00129053
-0.00118557
0.072572
-0.00193408
-0.000454424
0.0721335
-0.00245488
0.000454491
0.0719848
-0.00264678
0.00118563
0.0721336
-0.00245487
0.00139348
0.0725721
-0.00193408
0.000895888
0.0731609
-0.00129052
0.0734968
-0.000895809
-0.00123185
0.0759605
-0.00123179
-0.00198223
0.0760641
-0.00215273
-0.00162405
0.0759869
-0.00377291
-0.000603154
0.0761099
-0.00499709
0.000603245
0.0762065
-0.00542796
0.00162413
0.0761099
-0.00499709
0.00198228
0.075987
-0.0037729
0.00123184
0.0760642
-0.00215272
0.0759605
-0.00123176
-0.00112823
0.078217
-0.00112816
-0.0020594
0.0800143
-0.00301879
-0.00150108
0.0823305
-0.00690164
-0.000506515
0.0846018
-0.00948625
0.00050663
0.0855274
-0.0103338
0.00150118
0.0846018
-0.00948625
0.00205947
0.0823305
-0.00690163
0.00112822
0.0800144
-0.00301878
0.078217
-0.00112813
0.000669111
0.0768788
0.000669176
0.000256733
0.082415
-0.00198802
0.000770271
0.0914009
-0.00958373
0.00041907
0.0985007
-0.0135475
-0.000418936
0.101082
-0.0147159
-0.000770155
0.0985008
-0.0135475
-0.000256658
0.091401
-0.00958372
-0.000669127
0.0824151
-0.00198799
0.0768789
0.000669224
0.0062053
0.0644684
0.00620536
0.00924264
0.0720339
0.00734419
0.00787008
0.0848584
0.00791546
0.00299986
0.0942103
0.00916103
-0.00299971
0.097466
0.00961541
-0.00786995
0.0942103
0.00916103
-0.00924256
0.0848584
0.00791547
-0.00620532
0.0720339
0.00734421
0.0644684
0.00620541
0.0137708
0.0369269
0.0137709
0.0220671
0.0416196
0.0221183
0.017222
0.0491326
0.0405713
0.0062556
0.0541941
0.0509828
-0.00625546
0.055891
0.0540863
-0.0172218
0.0541941
0.0509828
-0.022067
0.0491325
0.0405713
-0.0137708
0.0416196
0.0221183
0.0369269
0.0137709
0.0184635
0.0184636
0.02958
0.0305035
0.0222835
0.0564294
0.00795256
0.0685253
-0.00795243
0.0717962
-0.0222834
0.0685252
-0.02958
0.0564294
-0.0184635
0.0305035
0.0184636
0.0646479
0.0480973
0.0575518
0.0457021
0.0378914
0.045702
0.0350407
0.0297733
0.0336859
0.0118694
0.0236902
0.0203362
-0.0118696
0.0216369
0.0159438
-0.0350409
0.0236902
0.0203362
-0.0457022
0.0297733
0.0336859
-0.064648
0.0378914
0.045702
0.0480972
0.0575518
0.054442
0.105419
0.0472247
0.037584
0.0716071
0.0375839
0.0289577
0.0552984
0.0279021
0.00981606
0.0430884
0.0170432
-0.0098163
0.0393214
0.0135029
-0.0289579
0.0430884
0.0170432
-0.0375841
0.0552984
0.0279021
-0.0544421
0.0716071
0.0375839
0.105419
0.0472247
0.0206299
0.08223
0.02554
0.0212752
0.0703162
0.0212751
0.0167477
0.0599907
0.0161998
0.00604903
0.0521234
0.0112092
-0.00604928
0.049401
0.00940539
-0.016748
0.0521234
0.0112092
-0.0212754
0.0599907
0.0161998
-0.02063
0.0703162
0.0212751
0.0822299
0.02554
0.0087162
0.0706068
0.0126525
0.0109496
0.065849
0.0109496
0.0088805
0.0603822
0.00869049
0.00332661
0.0560674
0.00662285
-0.00332687
0.0544865
0.00583741
-0.00888073
0.0560674
0.00662286
-0.0109498
0.0603822
0.00869051
-0.00871627
0.065849
0.0109496
0.0706067
0.0126526
0.00395847
0.0648803
0.00614703
0.00548279
0.0628
0.0054827
0.00456576
0.0600481
0.00454484
0.00174568
0.0578014
0.00371379
-0.00174594
0.0569533
0.00339157
-0.00456599
0.0578014
0.0037138
-0.00548296
0.0600481
0.00454486
-0.00395854
0.0628
0.00548273
0.0648803
0.00614706
0.00187821
0.0620581
0.00298895
0.00273086
0.0610944
0.00273078
0.00231908
0.0597262
0.00235342
0.000897536
0.0585796
0.00202314
-0.000897803
0.0581393
0.00189405
-0.00231931
0.0585796
0.00202315
-0.00273104
0.0597262
0.00235344
-0.00187829
0.0610944
0.00273081
0.0620581
0.00298899
0.000914485
0.0606605
0.00146279
0.0013626
0.0601979
0.00136252
0.00117252
0.059517
0.00121311
0.000457202
0.058936
0.00108277
-0.000457469
0.0587105
0.00103166
-0.00117275
0.058936
0.00108279
-0.00136278
0.059517
0.00121314
-0.000914562
0.0601979
0.00136256
0.0606605
0.00146282
0.000451842
0.0599653
0.00072012
0.000681727
0.0597378
0.000681656
0.00059151
0.0593965
0.000623725
0.000231686
0.0591017
0.000573188
-0.000231951
0.0589864
0.000553338
-0.000591743
0.0591017
0.000573203
-0.000681901
0.0593965
0.000623751
-0.000451918
0.0597378
0.00068169
0.0599653
0.000720152
0.000224354
0.05962
0.00035373
0.000340459
0.0595053
0.000340395
0.000296628
0.0593309
0.000320215
0.000116402
0.0591783
0.000302622
-0.000116665
0.0591182
0.000295719
-0.000296858
0.0591783
0.000302636
-0.00034063
0.0593309
0.000320242
-0.00022443
0.0595053
0.000340429
0.05962
0.000353764
0.000109634
0.0594536
0.000166842
0.000166004
0.0593923
0.000165948
0.000144048
0.0592966
0.000164654
5.62755e-05
0.0592102
0.000163647
-5.65331e-05
0.0591753
0.000163319
-0.000144274
0.0592102
0.000163661
-0.000166171
0.0592966
0.00016468
-0.000109708
0.0593923
0.000165981
0.0594536
0.000166874
4.83755e-05
0.0593869
5.96845e-05
7.03081e-05
0.0593482
7.02599e-05
5.76516e-05
0.0592815
8.64722e-05
2.13375e-05
0.059214
0.000101134
-2.15885e-05
0.0591838
0.000107212
-5.78719e-05
0.059214
0.000101148
-7.04714e-05
0.0592815
8.64974e-05
-4.84488e-05
0.0593482
7.02932e-05
0.0593869
5.97179e-05
9.66944e-06
0.0593948
-2.7999e-05
3.59419e-06
0.0593601
3.55446e-06
-9.87536e-06
0.0592843
5.16422e-05
-8.83068e-06
0.0591886
9.56341e-05
8.58754e-06
0.0591371
0.000114433
9.66202e-06
0.0591886
9.56472e-05
-3.75119e-06
0.0592843
5.16667e-05
-9.73945e-06
0.0593602
3.58577e-06
0.0593948
-2.79683e-05
-2.49737e-05
0.0594975
-0.00015267
-7.22302e-05
0.0594544
-7.22612e-05
-0.000105547
0.0593239
4.89568e-05
-6.03832e-05
0.0591188
0.000162829
6.01497e-05
0.0589827
0.000215023
0.000105342
0.0591188
0.000162842
7.2079e-05
0.0593239
4.89801e-05
2.49049e-05
0.0594545
-7.22302e-05
0.0594976
-0.000152638
-6.80856e-05
0.0597798
-0.000399898
-0.000202778
0.0597236
-0.0002028
-0.000310659
0.0594728
8.78534e-05
-0.00019646
0.0589896
0.000373601
0.000196238
0.0585781
0.00052274
0.000310465
0.0589896
0.000373613
0.000202635
0.0594728
8.78756e-05
6.80213e-05
0.0597237
-0.000202772
0.0597799
-0.00039987
-0.000124268
0.0604368
-0.000918038
-0.000453668
0.0603823
-0.000453681
-0.000793859
0.0599495
0.000203327
-0.000607878
0.0589056
0.000898253
0.000607668
0.0576578
0.00134917
0.000793676
0.0589056
0.000898264
0.000453533
0.0599496
0.000203348
0.000124206
0.0603823
-0.000453654
0.0604369
-0.000918009
-0.000178834
0.0618149
-0.00189724
-0.000886399
0.0617973
-0.000886403
-0.00183782
0.0612864
0.00044643
-0.00185569
0.059665
0.00201928
0.0018555
0.0565192
0.00343315
0.00183764
0.059665
0.00201929
0.000886275
0.0612865
0.000446449
0.000178777
0.0617973
-0.000886378
0.061815
-0.00189722
-0.000196482
0.0642002
-0.00321716
-0.00139725
0.0641987
-0.00139725
-0.00345925
0.0641964
0.000775367
-0.00500148
0.0641943
0.0037206
0.0050013
0.0641935
0.00775847
0.00345909
0.0641944
0.0037206
0.00139714
0.0641964
0.000775384
0.000196428
0.0641987
-0.00139722
0.0642003
-0.00321714
-0.000197998
0.0665878
-0.00321944
-0.00139957
0.0666018
-0.00139956
-0.00346128
0.0671069
0.000773014
-0.00500228
0.0687233
0.0037182
0.00500212
0.0718671
0.00775607
0.00346114
0.0687233
0.00371821
0.00139947
0.0671069
0.00077303
0.000197951
0.0666018
-0.00139954
0.0665879
-0.00321942
-0.000184086
0.0679739
-0.00190513
-0.000894426
0.0680224
-0.000894401
-0.00184486
0.0684457
0.00043826
-0.00185846
0.0694814
0.00201095
0.00185831
0.0707259
0.00342477
0.00184474
0.0694814
0.00201096
0.000894334
0.0684457
0.000438274
0.000184041
0.0680224
-0.000894381
0.067974
-0.00190511
-0.000135669
0.0686484
-0.000935126
-0.000471104
0.0686932
-0.000471069
-0.000809172
0.0689267
0.000185478
-0.000613895
0.0693946
0.000879997
0.000613771
0.0698
0.00133076
0.000809064
0.0693946
0.000880003
0.000471027
0.0689267
0.00018549
0.000135633
0.0686932
-0.000471053
0.0686485
-0.000935108
-9.08705e-05
0.0689653
-0.000433915
-0.000237632
0.0689867
-0.000237586
-0.00034127
0.0690839
5.18833e-05
-0.000208505
0.0692597
0.000336589
0.000208402
0.0693843
0.000485315
0.000341181
0.0692598
0.000336595
0.000237567
0.0690839
5.18935e-05
9.08378e-05
0.0689867
-0.000237571
0.0689654
-0.000433898
-6.95418e-05
0.0691358
-0.000218801
-0.000140418
0.0691284
-0.000140361
-0.000165423
0.06914
-2.21634e-05
-8.3963e-05
0.0691794
8.90596e-05
8.3882e-05
0.0692087
0.000140208
0.000165354
0.0691794
8.9064e-05
0.000140369
0.0691401
-2.21551e-05
6.95175e-05
0.0691285
-0.00014035
0.0691359
-0.000218788
-7.68937e-05
0.0692745
-0.000155293
-0.000128829
0.0692323
-0.00012876
-0.000126092
0.0691754
-8.83718e-05
-5.46072e-05
0.0691347
-5.11143e-05
5.45496e-05
0.0691222
-3.49642e-05
0.000126044
0.0691347
-5.11111e-05
0.000128795
0.0691754
-8.83658e-05
7.68739e-05
0.0692324
-0.000128751
0.0692746
-0.00015528
-0.000119068
0.0694597
-0.000183453
-0.000185771
0.0693658
-0.000185691
-0.000166813
0.0692244
-0.000189133
-6.70258e-05
0.069104
-0.00019159
6.69922e-05
0.0690578
-0.000192215
0.000166786
0.069104
-0.000191588
0.000185754
0.0692244
-0.00018913
0.000119057
0.0693659
-0.000185686
0.0694598
-0.000183446
-0.000212967
0.0697752
-0.000293486
-0.000327174
0.0695943
-0.000327082
-0.000287206
0.0693168
-0.000378735
-0.000113198
0.0690779
-0.000423273
0.000113189
0.0689855
-0.000440522
0.000287201
0.069078
-0.000423272
0.000327172
0.0693168
-0.000378734
0.000212961
0.0695943
-0.000327079
0.0697753
-0.000293479
-0.000393897
0.0703458
-0.000507732
-0.000604701
0.070016
-0.000604599
-0.000526025
0.0695023
-0.000754799
-0.000205681
0.0690673
-0.000883201
0.000205697
0.0689013
-0.000932622
0.000526041
0.0690673
-0.000883202
0.000604717
0.0695024
-0.0007548
0.000393901
0.0700161
-0.000604601
0.0703458
-0.000507731
-0.000723649
0.0713725
-0.000866431
-0.00111839
0.0708056
-0.00111827
-0.000961044
0.069887
-0.00151728
-0.000371733
0.0691417
-0.00185043
0.000371775
0.0688671
-0.00197626
0.000961083
0.0691417
-0.00185043
0.00111842
0.069887
-0.00151728
0.000723656
0.0708057
-0.00111828
0.0713726
-0.000866431
-0.00129059
0.0731608
-0.00139333
-0.002037
0.0722986
-0.00203688
-0.00170636
0.0707332
-0.0031107
-0.000646323
0.0695913
-0.00396433
0.000646392
0.0692036
-0.0042758
0.00170642
0.0695913
-0.00396433
0.00203705
0.0707332
-0.00311071
0.0012906
0.0722987
-0.00203689
0.0731609
-0.00139333
-0.00215279
0.0760641
-0.00198211
-0.00360241
0.075198
-0.00360229
-0.00284823
0.0728582
-0.00665186
-0.00103403
0.0716207
-0.00884048
0.00103412
0.0713007
-0.00959297
0.00284831
0.0716208
-0.00884048
0.00360247
0.0728582
-0.00665186
0.0021528
0.0751981
-0.00360229
0.0760642
-0.00198211
-0.00301886
0.0800143
-0.00205928
-0.00594226
0.0810451
-0.00594213
-0.00408568
0.0796484
-0.0155481
-0.00135405
0.0805406
-0.0211374
0.00135417
0.0811453
-0.0228863
0.00408579
0.0805406
-0.0211374
0.00594233
0.0796484
-0.0155481
0.00301887
0.0810452
-0.00594213
0.0800144
-0.00205928
-0.00198808
0.082415
0.000256857
-0.00733898
0.0917472
-0.00733885
-0.00319346
0.1089
-0.0429806
-0.000749343
0.121209
-0.0566599
0.000749483
0.125413
-0.0604819
0.00319359
0.121209
-0.0566599
0.00733907
0.1089
-0.0429806
0.00198809
0.0917473
-0.00733883
0.0824151
0.000256867
0.00734412
0.0720339
0.00924277
0.00981391
0.086808
0.00981407
0.00911566
0.117514
0.00345424
0.136032
-0.00345409
0.141937
-0.00911552
0.136032
-0.00981381
0.117514
-0.00734412
0.086808
0.00981409
0.0720339
0.00924277
0.0221183
0.0416196
0.0220673
0.0405201
0.0500048
0.0405203
0.0276334
0.0649906
0.105982
0.00935908
0.0717365
0.133553
-0.00935894
0.073601
0.141141
-0.0276333
0.0717365
0.133553
-0.04052
0.0649906
0.105982
-0.0221183
0.0500047
0.0405202
0.0416197
0.0220672
0.0305034
0.0295802
0.055506
0.0555061
0.0343794
0.142547
0.0112235
0.163418
-0.0112234
0.167844
-0.0343792
0.163418
-0.0555058
0.142547
-0.0305033
0.055506
0.0295801
0.0527981
0.0377701
0.0669834
0.0336859
0.0297733
0.0350406
0.0216911
0.0239895
0.021691
0.00747703
0.0203972
0.0141528
-0.00747725
0.019196
0.0117019
-0.0216913
0.0203972
0.0141528
-0.0336861
0.0239895
0.021691
-0.0527982
0.0297733
0.0350407
0.0377701
0.0669835
0.0448013
0.0837346
0.0564586
0.0279022
0.0552984
0.0289576
0.0180988
0.0435961
0.0180987
0.00627576
0.0372544
0.0120087
-0.00627599
0.0352239
0.0100264
-0.018099
0.0372544
0.0120088
-0.0279023
0.0435961
0.0180987
-0.0448013
0.0552983
0.0289576
0.0837346
0.0564587
0.016365
0.0693425
0.0235668
0.0161999
0.0599907
0.0167476
0.0117571
0.0524814
0.011757
0.00424525
0.0475371
0.00843808
-0.00424549
0.045833
0.00728675
-0.0117573
0.0475371
0.0084381
-0.0162001
0.0524813
0.011757
-0.0163651
0.0599907
0.0167477
0.0693425
0.0235669
0.00701322
0.0641012
0.0108803
0.00869058
0.0603822
0.00888039
0.00681287
0.0562365
0.00681276
0.00254117
0.0531584
0.00527305
-0.00254142
0.0520406
0.00471214
-0.00681309
0.0531583
0.00527307
-0.00869074
0.0562365
0.0068128
-0.00701329
0.0603822
0.00888045
0.0641012
0.0108804
0.00329413
0.0617222
0.00523169
0.00454493
0.0600481
0.00456565
0.00373471
0.0578567
0.0037346
0.00142346
0.0561108
0.00307233
-0.00142371
0.0554558
0.00282339
-0.00373493
0.0561108
0.00307235
-0.00454509
0.0578567
0.00373464
-0.00329421
0.0600481
0.0045657
0.0617222
0.00523175
0.00162004
0.060532
0.00255892
0.0023535
0.0597262
0.00231898
0.0019888
0.0585858
0.0019887
0.000768445
0.0576392
0.00171481
-0.000768698
0.0572769
0.00160986
-0.00198902
0.0576392
0.00171483
-0.00235367
0.0585858
0.00198874
-0.00162011
0.0597262
0.00231903
0.060532
0.00255898
0.00081422
0.0599178
0.00126247
0.00121319
0.059517
0.00117243
0.00104218
0.0589276
0.00104209
0.000406086
0.0584264
0.000931458
-0.000406339
0.0582321
0.00088858
-0.00104241
0.0584264
0.00093148
-0.00121335
0.0589276
0.00104213
-0.000814298
0.059517
0.00117248
0.0599178
0.00126253
0.000413378
0.0595989
0.000625462
0.000623796
0.0593965
0.000591426
0.000540973
0.059093
0.000540888
0.000211836
0.0588311
0.000497412
-0.000212087
0.0587288
0.000480452
-0.000541195
0.0588311
0.000497434
-0.000623962
0.059093
0.000540929
-0.000413456
0.0593966
0.00059148
0.0595989
0.00062552
0.000211019
0.0594331
0.000308261
0.000320279
0.0593309
0.000296553
0.000279034
0.0591753
0.000278959
0.0001095
0.0590393
0.000263725
-0.000109748
0.0589858
0.000257771
-0.000279253
0.0590393
0.000263747
-0.000320442
0.0591753
0.000278999
-0.000211095
0.0593309
0.000296607
0.0594332
0.000308319
0.000108739
0.0593464
0.000144643
0.00016471
0.0592966
0.000143983
0.000143041
0.0592184
0.000142976
5.59471e-05
0.0591477
0.000142146
-5.61907e-05
0.0591192
0.000141859
-0.000143256
0.0591477
0.000142167
-0.00016487
0.0592185
0.000143015
-0.000108814
0.0592966
0.000144035
0.0593464
0.0001447
5.89508e-05
0.0592992
4.77429e-05
8.65204e-05
0.0592815
5.75969e-05
7.23136e-05
0.0592467
7.22584e-05
2.7415e-05
0.0592085
8.50979e-05
-2.76525e-05
0.059191
9.02771e-05
-7.25223e-05
0.0592085
8.51183e-05
-8.66756e-05
0.0592467
7.22965e-05
-5.90241e-05
0.0592815
5.76477e-05
0.0592992
4.77983e-05
4.12229e-05
0.0592701
-4.02613e-05
5.16819e-05
0.0592843
-9.91939e-06
3.41165e-05
0.0592816
3.40721e-05
9.96841e-06
0.0592558
7.22562e-05
-1.01984e-05
0.0592377
8.78028e-05
-3.43185e-05
0.0592558
7.22758e-05
-5.18321e-05
0.0592816
3.41087e-05
-4.12935e-05
0.0592843
-9.87046e-06
0.0592701
-4.02088e-05
5.54351e-05
0.0592503
-0.000188473
4.89878e-05
0.0593239
-0.00010558
8.32581e-06
0.0593628
8.2923e-06
-8.18918e-06
0.0593295
0.00010548
7.96825e-06
0.0592904
0.000145993
-8.51961e-06
0.0593296
0.000105499
-4.91313e-05
0.0593628
8.32719e-06
-5.55032e-05
0.0593239
-0.000105533
0.0592503
-0.000188422
0.000129012
0.0592617
-0.000540404
8.78755e-05
0.0594728
-0.000310681
-2.4912e-05
0.0595882
-2.49343e-05
-4.73215e-05
0.0595142
0.000211235
4.7111e-05
0.0594046
0.00031405
2.47274e-05
0.0595142
0.000211252
-8.8012e-05
0.0595883
-2.49013e-05
-0.000129077
0.0594728
-0.000310638
0.0592617
-0.000540357
0.000340088
0.0594576
-0.0014542
0.00020334
0.0599495
-0.00079387
-9.89342e-05
0.0601926
-9.89452e-05
-0.000156956
0.0600266
0.000443754
0.000156757
0.0597417
0.000698181
9.87603e-05
0.0600266
0.00044377
-0.000203468
0.0601927
-9.89144e-05
-0.000340149
0.0599496
-0.000793829
0.0594577
-0.00145415
0.000832005
0.060495
-0.0037667
0.000446433
0.0612864
-0.00183781
-0.000264969
0.0616154
-0.000264969
-0.000441816
0.0613663
0.00085635
0.00044163
0.0608445
0.00144688
0.000264807
0.0613663
0.000856366
-0.000446553
0.0616154
-0.00026494
-0.000832062
0.0612865
-0.00183778
0.060495
-0.00376666
0.00162343
0.0641979
-0.00854361
0.000775361
0.0641964
-0.00345924
-0.00051402
0.064194
-0.000514007
-0.000963603
0.0641919
0.00134446
0.000963433
0.0641911
0.00248476
0.000513871
0.064192
0.00134447
-0.00077547
0.064194
-0.000513982
-0.00162348
0.0641964
-0.0034592
0.064198
-0.00854357
0.00162189
0.0679022
-0.00854561
0.000772999
0.0671069
-0.00346126
-0.000516094
0.0667722
-0.000516069
-0.000964417
0.0670161
0.00134236
0.000964263
0.0675358
0.00248265
0.000515959
0.0670161
0.00134238
-0.000773097
0.0667722
-0.000516046
-0.00162193
0.067107
-0.00346123
0.0679022
-0.00854558
0.000826644
0.0689439
-0.00377362
0.000438235
0.0684457
-0.00184483
-0.000272168
0.0681929
-0.000272132
-0.000444643
0.0683504
0.000849053
0.000444506
0.0686319
0.00143953
0.000272049
0.0683504
0.000849064
-0.000438322
0.0681929
-0.000272112
-0.000826686
0.0684457
-0.0018448
0.068944
-0.00377359
0.000328388
0.0691496
-0.00146919
0.000185443
0.0689267
-0.000809123
-0.000114653
0.0687931
-0.000114604
-0.000163136
0.0688512
0.000427737
0.000163018
0.0689545
0.000682021
0.000114551
0.0688512
0.000427746
-0.000185516
0.0687931
-0.000114587
-0.000328423
0.0689267
-0.0008091
0.0691497
-0.00146916
0.000105459
0.0691805
-0.000570254
5.18372e-05
0.0690839
-0.000341208
-5.6564e-05
0.0690098
-5.65015e-05
-5.97793e-05
0.0690122
0.000178752
5.96814e-05
0.0690392
0.000281203
5.64796e-05
0.0690122
0.000178759
-5.18974e-05
0.0690099
-5.64875e-05
-0.000105489
0.069084
-0.000341189
0.0691805
-0.000570233
8.89809e-06
0.0691993
-0.000246514
-2.22207e-05
0.06914
-0.000165347
-5.42003e-05
0.0690738
-5.41237e-05
-3.28149e-05
0.0690392
4.07397e-05
3.27384e-05
0.0690336
8.03337e-05
5.41347e-05
0.0690392
4.07455e-05
2.21746e-05
0.0690739
-5.4113e-05
-8.92038e-06
0.0691401
-0.000165333
0.0691994
-0.000246499
-5.03615e-05
0.0692463
-0.000151952
-8.84406e-05
0.0691754
-0.000126002
-8.88349e-05
0.0690746
-8.87439e-05
-3.84571e-05
0.0689942
-5.64526e-05
3.84027e-05
0.068965
-4.3227e-05
8.87889e-05
0.0689942
-5.64487e-05
8.84094e-05
0.0690747
-8.87368e-05
5.03451e-05
0.0691755
-0.000125993
0.0692464
-0.000151941
-0.000121306
0.0693497
-0.000165406
-0.000189214
0.0692244
-0.000166708
-0.000169269
0.0690348
-0.000169164
-6.7651e-05
0.0688723
-0.000171248
6.76194e-05
0.0688095
-0.000171919
0.000169244
0.0688723
-0.000171246
0.000189198
0.0690348
-0.00016916
0.000121298
0.0692245
-0.000166704
0.0693497
-0.000165401
-0.000246563
0.069561
-0.000258163
-0.000378826
0.0693168
-0.000287087
-0.000331745
0.0689407
-0.000331625
-0.000130446
0.068618
-0.000370168
0.000130438
0.0684934
-0.000385139
0.000331739
0.068618
-0.000370168
0.000378826
0.0689407
-0.000331625
0.000246561
0.0693168
-0.000287088
0.069561
-0.000258162
-0.000490764
0.0699871
-0.000442956
-0.000754901
0.0695023
-0.000525893
-0.000654427
0.0687398
-0.000654294
-0.000255102
0.0681001
-0.000764451
0.000255117
0.0678576
-0.00080696
0.000654442
0.0681001
-0.000764453
0.000754917
0.0687399
-0.000654298
0.000490771
0.0695024
-0.000525899
0.0699871
-0.000442961
-0.000975492
0.0708456
-0.000749423
-0.00151739
0.069887
-0.000960902
-0.0012942
0.0682936
-0.00129405
-0.00049756
0.0670278
-0.00157464
0.0004976
0.0665675
-0.00168121
0.00129423
0.0670278
-0.00157464
0.00151742
0.0682936
-0.00129406
0.000975504
0.0698871
-0.000960912
0.0708457
-0.000749432
-0.00193414
0.072572
-0.00118542
-0.00311082
0.0707332
-0.00170621
-0.00255998
0.067192
-0.00255983
-0.000957793
0.0647152
-0.0032537
0.000957859
0.0638864
-0.00351015
0.00256004
0.0647152
-0.00325371
0.00311087
0.0671921
-0.00255984
0.00193416
0.0707333
-0.00170622
0.0725721
-0.00118543
-0.00377297
0.0759869
-0.0016239
-0.00665198
0.0728582
-0.00284808
-0.00503685
0.063962
-0.0050367
-0.00178652
0.0593238
-0.00669922
0.00178661
0.0580074
-0.00728683
0.00503694
0.0593238
-0.00669923
0.00665204
0.063962
-0.00503671
0.00377299
0.0728583
-0.00284809
0.075987
-0.00162391
-0.0069017
0.0823305
-0.00150092
-0.0155482
0.0796484
-0.00408553
-0.00967504
0.0522158
-0.00967488
-0.00310292
0.0450182
-0.0134037
0.00310304
0.0435498
-0.0146344
0.00967514
0.0450182
-0.0134037
0.0155483
0.0522159
-0.00967489
0.00690172
0.0796485
-0.00408554
0.0823305
-0.00150094
-0.00958379
0.0914009
0.000770423
-0.0429808
0.1089
-0.00319331
-0.0168727
-0.0168725
-0.00457135
-0.0239428
0.00457149
-0.0260748
0.0168728
-0.0239428
0.0429809
-0.0168726
0.00958379
0.1089
-0.00319332
0.091401
0.000770405
0.00791542
0.0848584
0.00787023
0.117514
0.00911582
-0.00791544
0.117514
0.00911577
0.0848583
0.0078702
0.0405713
0.0491325
0.0172221
0.105982
0.0649906
0.0276336
0.0552044
0.101555
0.0552045
0.0169465
0.101601
0.0702098
-0.0169464
0.100305
0.0747287
-0.0552043
0.101601
0.0702098
-0.105982
0.101555
0.0552045
-0.0405713
0.0649905
0.0276335
0.0491325
0.017222
0.0564293
0.0222836
0.142547
0.0343795
0.0552503
0.276148
0.0552504
0.0156501
0.238522
0.066097
-0.0156501
0.230265
0.0691845
-0.0552502
0.238522
0.0660969
-0.142547
0.276148
0.0552503
-0.0564292
0.0343794
0.0222835
0.0176241
0.2409
0.0176241
0.0073928
0.228972
0.0197813
-0.00739282
0.224442
0.0206084
-0.017624
0.228972
0.0197813
0.2409
0.0176241
0.0056959
0.229508
0.00569594
0.00286273
0.225667
0.00613819
-0.00286277
0.223827
0.00634003
-0.00569591
0.225667
0.00613818
0.229508
0.0056959
0.00185447
0.225799
0.00185449
0.00102319
0.224551
0.0019472
-0.00102323
0.223879
0.00199432
-0.0018545
0.224551
0.0019472
0.225799
0.00185448
0.000606075
0.224587
0.000606086