/*--------------------------------*- C++ -*----------------------------------*\
  =========                 |
  \\      /  F ield         | OpenFOAM: Addition to OpenFOAM v6
   \\    /   O peration     | Website:  https://github.com/StasF1/dualFuelEngine
    \\  /    A nd           | Version:  0.3-alpha
     \\/     M anipulation  |
\*---------------------------------------------------------------------------*/
FoamFile
{
    version     2.0;
    format      ascii;
    class       volScalarField;
    location    "0";
    object      rho;
}
// * * * * * * * * * * * * * * * * * * * * * * * * * * * * * * * * * * * * * //

dimensions          [1 -3 0 0 0 0 0]; // kg/m^3

internalField       nonuniform List<scalar> 
60
(
    1.204 /* p = 1e05 */
    1.204
    1.204
    1.204
    1.204
    1.204
    1.204
    1.204
    1.204
    1.204
    1.204
    1.204
    1.204
    1.204
    1.204
    1.204
    1.204
    1.204
    1.204
    1.204
    1.204
    1.204
    1.204
    1.204
    1.204
    1.204
    1.204
    1.204
    1.204
    1.204
    1.787 /* p = 1.5e05 */
    1.787
    1.787
    1.787
    1.787
    1.787
    1.787
    1.787
    1.787
    1.787
    1.787
    1.787
    1.787
    1.787
    1.787
    1.787
    1.787
    1.787
    1.787
    1.787
    1.787
    1.787
    1.787
    1.787
    1.787
    1.787
    1.787
    1.787
    1.787
    1.787
)
;

boundaryField
{
    walls
    {
        type        zeroGradient;
    }
}


// ************************************************************************* //
