/*--------------------------------*- C++ -*----------------------------------*\
  =========                 |
  \\      /  F ield         | OpenFOAM: The Open Source CFD Toolbox
   \\    /   O peration     | Website:  https://openfoam.org
    \\  /    A nd           | Version:  6
     \\/     M anipulation  |
\*---------------------------------------------------------------------------*/
FoamFile
{
    version     2.0;
    format      ascii;
    class       volScalarField;
    location    "0.9";
    object      alpha_gas;
}
// * * * * * * * * * * * * * * * * * * * * * * * * * * * * * * * * * * * * * //

dimensions      [0 0 0 0 0 0 0];

internalField   nonuniform List<scalar> 
3029
(
4.18063e-13
4.2828e-13
6.20473e-13
4.23871e-13
-1.67654e-12
4.23956e-13
6.20524e-13
4.28306e-13
4.1804e-13
1.34019e-13
-1.7932e-13
-1.07491e-12
3.78336e-12
1.82087e-11
3.78248e-12
-1.07512e-12
-1.7929e-13
1.34035e-13
9.79213e-13
2.48107e-12
2.65427e-12
-3.44124e-11
-9.90702e-11
-3.44089e-11
2.65444e-12
2.48081e-12
9.79186e-13
-5.26135e-12
-1.54401e-11
-1.01013e-11
2.12599e-10
5.21976e-10
2.1258e-10
-1.01062e-11
-1.54394e-11
-5.26102e-12
3.04043e-11
8.9059e-11
3.70445e-11
-1.18896e-09
-2.73589e-09
-1.18886e-09
3.70704e-11
8.90546e-11
3.04026e-11
-1.53583e-10
-4.87716e-10
-2.21488e-10
6.32366e-09
1.43158e-08
6.32317e-09
-2.21625e-10
-4.87692e-10
-1.53575e-10
7.28953e-10
2.60525e-09
1.58801e-09
-3.28995e-08
-7.49087e-08
-3.28971e-08
1.58869e-09
2.60512e-09
7.2891e-10
-3.28853e-09
-1.37134e-08
-1.13669e-08
1.69251e-07
3.92105e-07
1.6924e-07
-1.13702e-08
-1.37127e-08
-3.28833e-09
1.411e-08
7.14495e-08
7.74433e-08
-8.65776e-07
-2.05382e-06
-8.6572e-07
7.74587e-08
7.14454e-08
1.41091e-08
-5.68369e-08
-3.69381e-07
-5.04104e-07
4.4152e-06
1.07679e-05
4.41493e-06
-5.04176e-07
-3.69358e-07
-5.68328e-08
2.06974e-07
1.89615e-06
3.16832e-06
-2.24777e-05
-5.65374e-05
-2.24764e-05
3.16866e-06
1.89603e-06
2.06957e-07
-6.0922e-07
-9.64342e-06
-1.94466e-05
0.000114294
0.000297755
0.000114288
-1.94479e-05
-9.64286e-06
-6.09155e-07
7.02649e-07
4.79586e-05
0.000118243
-0.000580194
-0.00158016
-0.000580169
0.000118248
4.79561e-05
7.02423e-07
8.89587e-06
-0.00022775
-0.000720455
0.00293024
0.00856541
0.00293014
-0.000720474
-0.000227739
8.89647e-06
-0.000103906
0.000954979
0.0044751
-0.0143931
-0.0498928
-0.0143927
0.00447514
0.000954939
-0.000103906
0.000694283
-0.00250197
-0.0282704
0.0558919
0.41735
0.0558904
-0.0282703
-0.00250186
0.000694274
-0.00228436
-0.00975228
0.120411
0.685339
0.999123
0.685337
0.12041
-0.00975221
-0.00228431
-0.00828695
0.00861995
0.342559
0.954126
1.02528
0.954124
0.342555
0.00861946
-0.00828684
-0.0120873
0.0342748
0.467614
1.03015
1.03369
1.03015
0.467609
0.0342736
-0.0120871
-0.0127157
0.0546273
0.521449
1.04389
1.03592
1.04388
0.521443
0.0546255
-0.0127156
-0.0111723
0.0687803
0.540202
1.03782
1.03581
1.03782
0.540196
0.0687781
-0.0111722
-0.00844655
0.0789699
0.544049
1.02551
1.03439
1.02551
0.544042
0.0789674
-0.00844647
-0.00513166
0.0870983
0.542163
1.01142
1.03198
1.01142
0.542155
0.0870954
-0.00513164
-0.00153188
0.0942948
0.538386
0.997044
1.02876
0.99704
0.538379
0.0942918
-0.00153192
0.00220059
0.101205
0.53442
0.982892
1.02486
0.982888
0.534413
0.101202
0.00220048
0.00598452
0.108277
0.531131
0.96913
1.02033
0.969126
0.531124
0.108274
0.00598434
0.00977841
0.115916
0.529021
0.955609
1.01503
0.955605
0.529014
0.115913
0.00977813
0.0135863
0.124514
0.528361
0.942078
1.00897
0.942074
0.528355
0.124511
0.013586
0.0175037
0.134123
0.527651
0.925479
0.999171
0.925476
0.527646
0.134121
0.0175032
0.0216832
0.143756
0.524645
0.905742
0.987558
0.905739
0.52464
0.143753
0.0216827
0.0261891
0.149294
0.504921
0.854248
0.939646
0.854246
0.504918
0.149292
0.0261885
0.027726
0.142297
0.477853
0.825341
0.921398
0.825339
0.47785
0.142295
0.0277253
0.0233342
0.107309
0.416343
0.823452
0.964569
0.823451
0.41634
0.107308
0.0233335
0.0156291
0.043652
0.231327
0.664336
0.947685
0.664337
0.231326
0.0436511
0.0156283
4.28281e-13
4.24102e-13
5.8382e-13
3.37587e-13
-1.50538e-12
3.37394e-13
5.83701e-13
4.2406e-13
4.2829e-13
-1.79327e-13
-2.82303e-13
-8.77919e-13
2.64834e-12
1.22569e-11
2.64775e-12
-8.78241e-13
-2.82367e-13
-1.7929e-13
2.48109e-12
2.9418e-12
3.41768e-12
-1.54775e-11
-5.24e-11
-1.54754e-11
3.41755e-12
2.94152e-12
2.48104e-12
-1.54402e-11
-1.49401e-11
-1.62619e-11
7.25758e-11
2.38691e-10
7.25665e-11
-1.62636e-11
-1.49397e-11
-1.54398e-11
8.90596e-11
7.64116e-11
8.55243e-11
-3.29996e-10
-1.13289e-09
-3.29954e-10
8.553e-11
7.64086e-11
8.90574e-11
-4.8772e-10
-3.802e-10
-4.76511e-10
1.47414e-09
5.53664e-09
1.47394e-09
-4.76535e-10
-3.80186e-10
-4.87708e-10
2.60527e-09
1.85673e-09
2.66219e-09
-6.5059e-09
-2.75764e-08
-6.50496e-09
2.66228e-09
1.85666e-09
2.60522e-09
-1.37136e-08
-8.90457e-09
-1.47701e-08
2.81175e-08
1.38921e-07
2.8113e-08
-1.47704e-08
-8.90422e-09
-1.37133e-08
7.14502e-08
4.18292e-08
8.1073e-08
-1.17344e-07
-7.04638e-07
-1.17322e-07
8.10736e-08
4.18274e-08
7.14487e-08
-3.69384e-07
-1.91643e-07
-4.40343e-07
4.60653e-07
3.58857e-06
4.60549e-07
-4.40343e-07
-1.91635e-07
-3.69377e-07
1.89617e-06
8.49538e-07
2.36738e-06
-1.60462e-06
-1.83175e-05
-1.60413e-06
2.36736e-06
8.49497e-07
1.89613e-06
-9.64348e-06
-3.59437e-06
-1.25986e-05
4.05385e-06
9.35606e-05
4.05176e-06
-1.25985e-05
-3.59417e-06
-9.64332e-06
4.79588e-05
1.39139e-05
6.62104e-05
3.64958e-06
-0.000477303
3.6581e-06
6.62093e-05
1.39132e-05
4.79581e-05
-0.00022775
-4.4573e-05
-0.000340591
-0.000177101
0.00241275
-0.000177132
-0.000340585
-4.45706e-05
-0.000227747
0.000954979
7.04595e-05
0.00166166
0.00214664
-0.0116861
0.00214674
0.00166162
7.04542e-05
0.000954966
-0.00250196
0.000485283
-0.00679186
-0.0229968
0.0420633
-0.0229969
-0.0067917
0.000485279
-0.00250193
-0.00975228
-0.00463595
0.00939248
0.223768
0.593549
0.223767
0.00939212
-0.00463585
-0.00975226
0.00861987
-0.00762794
0.076302
0.506323
0.876096
0.50632
0.0763005
-0.00762784
0.00861969
0.0342745
-0.00378553
0.136412
0.644721
0.95616
0.644717
0.136409
-0.00378555
0.0342741
0.0546269
0.00427698
0.175082
0.69728
0.969208
0.697275
0.175078
0.00427678
0.0546263
0.0687797
0.0139833
0.198498
0.711755
0.961058
0.71175
0.198494
0.0139829
0.0687789
0.0789691
0.0241222
0.213846
0.711155
0.946361
0.711149
0.213841
0.0241216
0.0789682
0.0870971
0.034271
0.225336
0.705024
0.929892
0.705018
0.225331
0.0342702
0.0870961
0.0942933
0.0443378
0.23505
0.696766
0.912855
0.69676
0.235045
0.0443368
0.0942922
0.101203
0.0543728
0.243902
0.687429
0.89524
0.687424
0.243897
0.0543716
0.101202
0.108275
0.0645466
0.252354
0.676892
0.876362
0.676887
0.252349
0.0645453
0.108274
0.115913
0.0751328
0.26047
0.663722
0.854128
0.663717
0.260466
0.0751314
0.115912
0.124511
0.0868459
0.268548
0.645226
0.824836
0.645221
0.268544
0.0868445
0.12451
0.13412
0.0997871
0.272509
0.610591
0.774828
0.610587
0.272505
0.0997856
0.134119
0.143752
0.117095
0.278562
0.557201
0.699634
0.557199
0.278559
0.117093
0.14375
0.14929
0.129448
0.224514
0.382063
0.467778
0.382062
0.224512
0.129447
0.149288
0.142293
0.137003
0.209323
0.32229
0.391837
0.322289
0.209321
0.137002
0.142292
0.107305
0.114037
0.255553
0.493228
0.593405
0.493227
0.255552
0.114035
0.107304
0.0436501
0.0353644
0.171739
0.589815
0.879508
0.589815
0.171738
0.0353635
0.0436493
6.20475e-13
5.83822e-13
6.21094e-13
3.4906e-13
-8.76503e-13
3.48896e-13
6.20869e-13
5.83728e-13
6.20489e-13
-1.0749e-12
-8.77911e-13
-8.64853e-13
6.19987e-13
4.20505e-12
6.19766e-13
-8.6512e-13
-8.78014e-13
-1.07486e-12
2.65417e-12
3.41761e-12
3.74331e-12
1.77616e-13
-8.57467e-12
1.78006e-13
3.74307e-12
3.41752e-12
2.65431e-12
-1.01007e-11
-1.62616e-11
-1.77148e-11
-8.82635e-12
2.05096e-11
-8.82777e-12
-1.77149e-11
-1.62617e-11
-1.01017e-11
3.70409e-11
8.5523e-11
8.66343e-11
6.69121e-11
-3.585e-11
6.69162e-11
8.66341e-11
8.55224e-11
3.70476e-11
-2.21471e-10
-4.76506e-10
-4.23857e-10
-4.14699e-10
-4.44579e-11
-4.14712e-10
-4.23856e-10
-4.76503e-10
-2.21507e-10
1.58794e-09
2.66218e-09
2.06026e-09
2.40105e-09
1.11589e-09
2.40108e-09
2.06026e-09
2.66216e-09
1.58812e-09
-1.13666e-08
-1.477e-08
-9.91921e-09
-1.34927e-08
-9.66051e-09
-1.34928e-08
-9.91918e-09
-1.477e-08
-1.13675e-08
7.7442e-08
8.1073e-08
4.70239e-08
7.44807e-08
6.86178e-08
7.44803e-08
4.70236e-08
8.10727e-08
7.74459e-08
-5.04098e-07
-4.40344e-07
-2.18204e-07
-4.05912e-07
-4.49744e-07
-4.05908e-07
-2.18202e-07
-4.40342e-07
-5.04116e-07
3.16829e-06
2.36738e-06
9.82709e-07
2.18783e-06
2.82646e-06
2.1878e-06
9.827e-07
2.36738e-06
3.16838e-06
-1.94465e-05
-1.25986e-05
-4.23975e-06
-1.16622e-05
-1.73366e-05
-1.1662e-05
-4.2397e-06
-1.25986e-05
-1.94469e-05
0.000118243
6.62105e-05
1.70976e-05
6.12926e-05
0.000104913
6.12915e-05
1.70973e-05
6.62104e-05
0.000118244
-0.000720456
-0.000340592
-6.0936e-05
-0.000314155
-0.000632494
-0.000314149
-6.09349e-05
-0.000340591
-0.000720461
0.0044751
0.00166165
0.000160948
0.00151342
0.00383157
0.00151339
0.000160944
0.00166165
0.00447511
-0.0282704
-0.00679185
-3.98629e-05
-0.00592067
-0.0228843
-0.00592055
-3.98562e-05
-0.00679183
-0.0282703
0.120411
0.00939243
-0.00221287
0.00444941
0.079239
0.00444921
-0.00221285
0.00939237
0.12041
0.342558
0.0763018
0.000847896
0.0634105
0.258871
0.0634095
0.000847834
0.0763015
0.342557
0.467613
0.136412
0.0098738
0.118058
0.362408
0.118056
0.0098736
0.136411
0.467611
0.521448
0.175081
0.0216451
0.153606
0.406385
0.153603
0.0216448
0.17508
0.521445
0.540201
0.198497
0.0342529
0.175177
0.420576
0.175174
0.0342524
0.198496
0.540198
0.544047
0.213844
0.0469528
0.18919
0.422022
0.189187
0.0469521
0.213843
0.544044
0.54216
0.225333
0.0595405
0.199349
0.418363
0.199346
0.0595397
0.225332
0.542157
0.538383
0.235047
0.0719537
0.207607
0.412683
0.207603
0.0719528
0.235046
0.53838
0.534416
0.243899
0.0841922
0.214581
0.40581
0.214578
0.0841912
0.243898
0.534413
0.531127
0.25235
0.0963478
0.220151
0.397181
0.220147
0.0963466
0.252349
0.531124
0.529016
0.260465
0.108471
0.223475
0.38483
0.223473
0.10847
0.260464
0.529013
0.528355
0.268543
0.121111
0.222473
0.36438
0.22247
0.12111
0.268542
0.528353
0.527645
0.272503
0.131613
0.211474
0.325921
0.211472
0.131612
0.272502
0.527643
0.524638
0.278556
0.147371
0.177774
0.248427
0.177773
0.14737
0.278555
0.524636
0.504914
0.224509
0.0574503
0.0432896
0.0462042
0.0432895
0.0574502
0.224508
0.504913
0.477845
0.209318
0.209318
0.477844
0.416335
0.255548
0.198357
0.330875
0.448459
0.330874
0.198356
0.255547
0.416334
0.231321
0.171733
0.157494
0.410464
0.652298
0.410463
0.157493
0.171732
0.23132
0.141808
0.413531
0.6941
0.413531
0.141807
0.137651
0.408412
0.69817
0.408412
0.137651
0.138207
0.405089
0.694366
0.405089
0.138207
0.140507
0.403461
0.689209
0.403461
0.140507
0.143398
0.402652
0.68396
0.402653
0.143398
0.146462
0.402171
0.678805
0.402171
0.146462
0.149552
0.401808
0.67375
0.401809
0.149551
0.152622
0.40148
0.668769
0.401481
0.152622
0.155631
0.401167
0.663907
0.401167
0.15563
0.158696
0.400825
0.658924
0.400825
0.158695
0.161252
0.400562
0.65482
0.400563
0.161251
0.165836
0.399984
0.647287
0.399984
0.165835
4.23865e-13
3.37578e-13
3.49049e-13
2.4509e-13
-2.13396e-13
2.45005e-13
3.4888e-13
3.3746e-13
4.239e-13
3.78344e-12
2.64843e-12
6.20044e-13
-3.86658e-13
-2.27426e-13
-3.86783e-13
6.19864e-13
2.64831e-12
3.78326e-12
-3.44128e-11
-1.54779e-11
1.77425e-13
4.19998e-12
4.081e-12
4.19993e-12
1.76945e-13
-1.5478e-11
-3.44114e-11
2.12601e-10
7.25777e-11
-8.82574e-12
-1.79257e-11
-1.7593e-11
-1.79267e-11
-8.82511e-12
7.25777e-11
2.12593e-10
-1.18897e-09
-3.30005e-10
6.69102e-11
7.76494e-11
8.12913e-11
7.76526e-11
6.69079e-11
-3.30005e-10
-1.18893e-09
6.32369e-09
1.47418e-09
-4.14694e-10
-3.43592e-10
-3.82193e-10
-3.43608e-10
-4.14687e-10
1.47418e-09
6.3235e-09
-3.28996e-08
-6.50606e-09
2.40104e-09
1.55541e-09
1.85196e-09
1.55549e-09
2.40103e-09
-6.50609e-09
-3.28987e-08
1.69252e-07
2.81181e-08
-1.34927e-08
-7.11218e-09
-9.15459e-09
-7.11256e-09
-1.34927e-08
2.81183e-08
1.69247e-07
-8.65777e-07
-1.17346e-07
7.44808e-08
3.23847e-08
4.57427e-08
3.23864e-08
7.44812e-08
-1.17347e-07
-8.65755e-07
4.4152e-06
4.60664e-07
-4.05913e-07
-1.44947e-07
-2.29487e-07
-1.44954e-07
-4.05917e-07
4.60664e-07
4.4151e-06
-2.24777e-05
-1.60467e-06
2.18784e-06
6.27859e-07
1.14937e-06
6.27889e-07
2.18786e-06
-1.60465e-06
-2.24772e-05
0.000114294
4.05394e-06
-1.16622e-05
-2.5699e-06
-5.70958e-06
-2.57001e-06
-1.16624e-05
4.05389e-06
0.000114291
-0.000580192
3.64959e-06
6.12926e-05
9.43687e-06
2.77805e-05
9.43722e-06
6.12933e-05
3.64992e-06
-0.000580182
0.00293023
-0.000177102
-0.000314155
-2.64034e-05
-0.00012828
-2.64042e-05
-0.000314158
-0.000177104
0.00293018
-0.0143931
0.00214665
0.00151342
5.76005e-06
0.000509793
5.76002e-06
0.00151343
0.00214666
-0.0143929
0.0558915
-0.0229968
-0.00592065
0.000652802
-0.0010561
0.000652814
-0.00592069
-0.0229968
0.0558907
0.685339
0.223768
0.00444936
-0.00467974
-0.00822874
-0.0046798
0.00444939
0.223767
0.685337
0.954125
0.506322
0.0634102
-0.00938046
-0.00125339
-0.00938058
0.0634104
0.506321
0.954124
1.03015
0.64472
0.118057
-0.00791453
0.0119909
-0.00791468
0.118057
0.644719
1.03015
1.04389
0.697279
0.153604
-0.00220233
0.0237889
-0.00220248
0.153605
0.697277
1.04388
1.03782
0.711754
0.175176
0.00535209
0.0329013
0.00535196
0.175177
0.711752
1.03782
1.02551
0.711153
0.189187
0.0134982
0.0401348
0.0134981
0.189189
0.711151
1.02551
1.01142
0.705022
0.199346
0.021737
0.0462669
0.0217369
0.199347
0.70502
1.01142
0.997044
0.696763
0.207603
0.0298369
0.0517432
0.0298367
0.207604
0.696761
0.997041
0.982892
0.687426
0.214577
0.0376781
0.0566976
0.0376779
0.214578
0.687425
0.982889
0.96913
0.676888
0.220146
0.0450911
0.0609816
0.0450909
0.220147
0.676887
0.969127
0.955609
0.663718
0.22347
0.0517572
0.0641404
0.0517571
0.223471
0.663716
0.955606
0.942078
0.645221
0.222467
0.0567758
0.0650448
0.0567756
0.222468
0.64522
0.942075
0.92548
0.610586
0.211468
0.0589243
0.0619259
0.0589242
0.211469
0.610584
0.925478
0.905742
0.557195
0.177769
0.0500065
0.0485027
0.0500065
0.177769
0.557195
0.905741
0.854247
0.382058
0.0432869
0.0421523
0.0377458
0.0421523
0.0432872
0.382058
0.854246
0.82534
0.322285
0.322285
0.82534
0.82345
0.493223
0.33087
0.271717
0.340555
0.271717
0.33087
0.493224
0.82345
0.664332
0.589809
0.410458
0.305697
0.394778
0.305697
0.410459
0.58981
0.664333
0.413526
0.326747
0.422892
0.326748
0.413526
0.408407
0.335887
0.433309
0.335887
0.408407
0.405084
0.340252
0.436668
0.340252
0.405084
0.403456
0.342938
0.437542
0.342937
0.403456
0.402648
0.345035
0.43759
0.345034
0.402647
0.402166
0.346902
0.43737
0.346901
0.402166
0.401804
0.348656
0.437069
0.348655
0.401803
0.401476
0.350334
0.436742
0.350333
0.401475
0.401162
0.351941
0.436415
0.351939
0.401162
0.40082
0.353528
0.436064
0.353527
0.40082
0.400558
0.354855
0.435793
0.354854
0.400557
0.39998
0.357096
0.435227
0.357095
0.399979
-1.67652e-12
-1.50537e-12
-8.76507e-13
-2.13403e-13
-2.44628e-14
-2.1329e-13
-8.76313e-13
-1.50516e-12
-1.6765e-12
1.82085e-11
1.22569e-11
4.2051e-12
-2.27399e-13
-9.72715e-13
-2.27094e-13
4.20546e-12
1.22571e-11
1.82083e-11
-9.90696e-11
-5.24e-11
-8.57496e-12
4.081e-12
3.55451e-12
4.08089e-12
-8.57678e-12
-5.24016e-11
-9.90683e-11
5.21973e-10
2.38692e-10
2.05108e-11
-1.75933e-11
-1.2127e-11
-1.75953e-11
2.05134e-11
2.38695e-10
5.21967e-10
-2.73587e-09
-1.13289e-09
-3.58549e-11
8.12931e-11
4.90793e-11
8.12991e-11
-3.58694e-11
-1.1329e-09
-2.73585e-09
1.43157e-08
5.53665e-09
-4.44376e-11
-3.82203e-10
-2.06983e-10
-3.82237e-10
-4.43755e-11
5.53672e-09
1.43156e-08
-7.49084e-08
-2.75765e-08
1.11581e-09
1.85201e-09
8.9796e-10
1.85219e-09
1.11553e-09
-2.75768e-08
-7.49077e-08
3.92104e-07
1.38921e-07
-9.66018e-09
-9.15481e-09
-3.89685e-09
-9.15572e-09
-9.65896e-09
1.38922e-07
3.92101e-07
-2.05381e-06
-7.04638e-07
6.86165e-08
4.57436e-08
1.65718e-08
4.57481e-08
6.86111e-08
-7.04646e-07
-2.0538e-06
1.07678e-05
3.58857e-06
-4.4974e-07
-2.29491e-07
-6.75307e-08
-2.29513e-07
-4.49716e-07
3.58861e-06
1.07678e-05
-5.65372e-05
-1.83174e-05
2.82645e-06
1.14939e-06
2.54248e-07
1.14949e-06
2.82635e-06
-1.83176e-05
-5.65369e-05
0.000297754
9.35604e-05
-1.73365e-05
-5.70963e-06
-8.13759e-07
-5.71009e-06
-1.73361e-05
9.35611e-05
0.000297753
-0.00158016
-0.000477302
0.000104913
2.77807e-05
1.58111e-06
2.77826e-05
0.000104911
-0.000477304
-0.00158015
0.0085654
0.00241274
-0.000632494
-0.000128281
5.08421e-06
-0.000128288
-0.000632491
0.00241275
0.00856537
-0.0498927
-0.011686
0.00383157
0.000509792
-8.50053e-05
0.000509818
0.00383157
-0.011686
-0.0498926
0.417349
0.042063
-0.0228843
-0.00105609
0.000580539
-0.00105614
-0.0228843
0.0420629
0.417348
0.999123
0.593548
0.0792388
-0.00822873
-0.00173468
-0.00822885
0.0792391
0.593548
0.999123
1.02528
0.876096
0.258871
-0.00125344
-0.00708184
-0.00125335
0.258872
0.876096
1.02528
1.03369
0.95616
0.362408
0.0119908
-0.0106222
0.0119912
0.362409
0.956159
1.03369
1.03592
0.969208
0.406384
0.0237885
-0.011139
0.0237893
0.406385
0.969207
1.03592
1.03581
0.961058
0.420575
0.0329007
-0.0094357
0.0329017
0.420576
0.961057
1.03581
1.03439
0.946361
0.422021
0.040134
-0.00645044
0.0401352
0.422023
0.94636
1.03439
1.03198
0.929893
0.418362
0.0462658
-0.00274212
0.0462671
0.418364
0.929891
1.03198
1.02876
0.912856
0.412681
0.0517419
0.0012695
0.0517432
0.412683
0.912855
1.02876
1.02486
0.895242
0.405807
0.0566961
0.00542471
0.0566974
0.405809
0.895241
1.02486
1.02033
0.876364
0.397178
0.06098
0.00966328
0.0609812
0.39718
0.876363
1.02033
1.01503
0.85413
0.384827
0.0641386
0.0139527
0.0641397
0.384829
0.854129
1.01503
1.00897
0.824838
0.364377
0.0650428
0.0182246
0.0650438
0.364378
0.824837
1.00897
0.999177
0.77483
0.325918
0.0619239
0.0224835
0.0619246
0.325919
0.774829
0.999176
0.987565
0.699635
0.248423
0.0485008
0.0260092
0.0485013
0.248424
0.699635
0.987564
0.939652
0.467777
0.0462009
0.0377449
0.029067
0.0377451
0.0462014
0.467778
0.939652
0.921404
0.391836
0.391837
0.921404
0.964576
0.593407
0.448459
0.340554
0.306506
0.340555
0.44846
0.593408
0.964576
0.947694
0.879516
0.652302
0.394779
0.308842
0.39478
0.652302
0.879515
0.947694
0.694105
0.422892
0.314094
0.422894
0.694105
0.698174
0.43331
0.318678
0.433311
0.698174
0.694371
0.436669
0.322343
0.436669
0.69437
0.689213
0.437543
0.325463
0.437544
0.689213
0.683964
0.437591
0.328304
0.437591
0.683963
0.678809
0.437372
0.330988
0.437371
0.678808
0.673754
0.43707
0.333564
0.43707
0.673753
0.668773
0.436743
0.336054
0.436743
0.668772
0.663911
0.436417
0.338448
0.436416
0.66391
0.658927
0.436065
0.340832
0.436064
0.658926
0.654824
0.435794
0.342817
0.435793
0.654823
0.647291
0.435228
0.346232
0.435226
0.647289
4.23959e-13
3.37398e-13
3.48897e-13
2.45009e-13
-2.13293e-13
2.45192e-13
3.49115e-13
3.3763e-13
4.239e-13
3.78238e-12
2.64769e-12
6.19753e-13
-3.86786e-13
-2.27084e-13
-3.86785e-13
6.1956e-13
2.64762e-12
3.78252e-12
-3.44083e-11
-1.54752e-11
1.77972e-13
4.19994e-12
4.0809e-12
4.19934e-12
1.77003e-13
-1.54763e-11
-3.44086e-11
2.12576e-10
7.25657e-11
-8.82759e-12
-1.79269e-11
-1.75955e-11
-1.79273e-11
-8.82569e-12
7.25706e-11
2.12578e-10
-1.18884e-09
-3.29952e-10
6.69155e-11
7.76539e-11
8.13e-11
7.76565e-11
6.69116e-11
-3.2997e-10
-1.18885e-09
6.3231e-09
1.47393e-09
-4.1471e-10
-3.43615e-10
-3.82242e-10
-3.43627e-10
-4.14697e-10
1.47402e-09
6.32315e-09
-3.28968e-08
-6.50493e-09
2.40108e-09
1.55552e-09
1.85221e-09
1.55558e-09
2.40105e-09
-6.50535e-09
-3.2897e-08
1.69238e-07
2.81128e-08
-1.34928e-08
-7.11268e-09
-9.1558e-09
-7.11297e-09
-1.34927e-08
2.81148e-08
1.6924e-07
-8.65713e-07
-1.17321e-07
7.44805e-08
3.23869e-08
4.57484e-08
3.23882e-08
7.44808e-08
-1.17331e-07
-8.65719e-07
4.4149e-06
4.60546e-07
-4.05909e-07
-1.44956e-07
-2.29513e-07
-1.44961e-07
-4.05913e-07
4.60588e-07
4.41493e-06
-2.24763e-05
-1.6041e-06
2.18781e-06
6.27895e-07
1.14949e-06
6.27918e-07
2.18783e-06
-1.6043e-06
-2.24764e-05
0.000114288
4.05167e-06
-1.1662e-05
-2.57002e-06
-5.71009e-06
-2.57011e-06
-1.16622e-05
4.05248e-06
0.000114288
-0.000580167
3.65855e-06
6.12916e-05
9.43725e-06
2.77825e-05
9.43756e-06
6.12925e-05
3.65537e-06
-0.000580169
0.00293013
-0.000177135
-0.00031415
-2.64042e-05
-0.000128288
-2.6405e-05
-0.000314154
-0.000177123
0.00293013
-0.0143927
0.00214675
0.00151339
5.75984e-06
0.000509815
5.76078e-06
0.00151341
0.00214672
-0.0143927
0.0558901
-0.0229969
-0.00592054
0.000652813
-0.00105613
0.00065282
-0.00592062
-0.0229969
0.05589
0.685337
0.223766
0.00444918
-0.00467977
-0.00822883
-0.00467982
0.00444928
0.223767
0.685336
0.954124
0.50632
0.0634094
-0.00938054
-0.0012534
-0.00938062
0.06341
0.50632
0.954123
1.03015
0.644717
0.118056
-0.00791465
0.011991
-0.00791473
0.118057
0.644718
1.03015
1.04388
0.697276
0.153603
-0.00220248
0.0237889
-0.00220254
0.153605
0.697276
1.04388
1.03782
0.711751
0.175174
0.0053519
0.0329012
0.00535188
0.175176
0.711751
1.03782
1.02551
0.711151
0.189187
0.0134979
0.0401345
0.0134979
0.189189
0.711151
1.02551
1.01142
0.70502
0.199346
0.0217367
0.0462661
0.0217367
0.199348
0.705021
1.01142
0.997043
0.696763
0.207603
0.0298365
0.0517421
0.0298366
0.207605
0.696763
0.997042
0.982892
0.687427
0.214578
0.0376777
0.0566962
0.0376778
0.21458
0.687428
0.982891
0.969131
0.676891
0.220148
0.0450906
0.0609798
0.0450907
0.22015
0.676891
0.96913
0.955611
0.663722
0.223473
0.0517566
0.0641381
0.0517567
0.223475
0.663722
0.95561
0.942081
0.645227
0.222471
0.0567751
0.0650421
0.0567752
0.222472
0.645227
0.94208
0.925485
0.610593
0.211472
0.0589234
0.0619229
0.0589235
0.211473
0.610593
0.925484
0.905749
0.557204
0.177772
0.0500051
0.0484996
0.0500053
0.177773
0.557205
0.905748
0.854256
0.382065
0.0432872
0.0421512
0.0377442
0.0421513
0.0432876
0.382065
0.854256
0.82535
0.322291
0.322292
0.82535
0.823463
0.493233
0.330877
0.27172
0.340554
0.27172
0.330878
0.493233
0.823463
0.66435
0.589826
0.41047
0.305702
0.394779
0.305701
0.41047
0.589825
0.664349
0.413539
0.326753
0.422894
0.326753
0.413538
0.40842
0.335892
0.433311
0.335892
0.408418
0.405097
0.340257
0.43667
0.340257
0.405096
0.403469
0.342943
0.437544
0.342942
0.403468
0.402661
0.34504
0.437591
0.345039
0.402659
0.402179
0.346907
0.437372
0.346905
0.402178
0.401816
0.34866
0.43707
0.348659
0.401815
0.401488
0.350339
0.436743
0.350337
0.401487
0.401175
0.351945
0.436416
0.351943
0.401173
0.400833
0.353532
0.436064
0.353531
0.400831
0.40057
0.354859
0.435794
0.354857
0.400569
0.399992
0.357101
0.435227
0.357099
0.39999
6.20518e-13
5.83695e-13
6.20863e-13
3.48885e-13
-8.76315e-13
3.49108e-13
6.21069e-13
5.83806e-13
6.20467e-13
-1.07512e-12
-8.78241e-13
-8.65125e-13
6.19828e-13
4.20548e-12
6.19593e-13
-8.65172e-13
-8.78123e-13
-1.07505e-12
2.65449e-12
3.41756e-12
3.74309e-12
1.77009e-13
-8.57688e-12
1.76909e-13
3.74321e-12
3.41765e-12
2.65437e-12
-1.01066e-11
-1.62637e-11
-1.77149e-11
-8.82528e-12
2.05138e-11
-8.82542e-12
-1.77143e-11
-1.6263e-11
-1.01057e-11
3.70729e-11
8.55304e-11
8.66343e-11
6.69084e-11
-3.58709e-11
6.69108e-11
8.66339e-11
8.55276e-11
3.70678e-11
-2.21637e-10
-4.76537e-10
-4.23857e-10
-4.14689e-10
-4.43704e-11
-4.14695e-10
-4.23856e-10
-4.76525e-10
-2.2161e-10
1.58874e-09
2.66229e-09
2.06026e-09
2.40103e-09
1.11552e-09
2.40104e-09
2.06026e-09
2.66225e-09
1.58861e-09
-1.13704e-08
-1.47704e-08
-9.91919e-09
-1.34927e-08
-9.65891e-09
-1.34927e-08
-9.91919e-09
-1.47702e-08
-1.13698e-08
7.74597e-08
8.10739e-08
4.70237e-08
7.44813e-08
6.86111e-08
7.44808e-08
4.70237e-08
8.10734e-08
7.74567e-08
-5.0418e-07
-4.40344e-07
-2.18202e-07
-4.05917e-07
-4.49717e-07
-4.05913e-07
-2.18202e-07
-4.40343e-07
-5.04166e-07
3.16868e-06
2.36736e-06
9.827e-07
2.18786e-06
2.82636e-06
2.18783e-06
9.82699e-07
2.36737e-06
3.16861e-06
-1.9448e-05
-1.25985e-05
-4.23969e-06
-1.16623e-05
-1.73362e-05
-1.16622e-05
-4.23968e-06
-1.25985e-05
-1.94478e-05
0.000118249
6.62094e-05
1.70973e-05
6.12933e-05
0.000104912
6.12924e-05
1.70972e-05
6.62097e-05
0.000118248
-0.000720475
-0.000340585
-6.09349e-05
-0.000314158
-0.000632491
-0.000314153
-6.09346e-05
-0.000340588
-0.000720472
0.00447514
0.00166162
0.000160944
0.00151343
0.00383157
0.00151341
0.000160943
0.00166163
0.00447514
-0.0282703
-0.00679171
-3.9855e-05
-0.00592068
-0.0228843
-0.00592059
-3.9853e-05
-0.00679175
-0.0282703
0.120409
0.0093921
-0.00221285
0.00444936
0.0792389
0.00444923
-0.00221285
0.00939218
0.120409
0.342555
0.0763005
0.00084783
0.0634103
0.258871
0.0634096
0.000847811
0.0763009
0.342555
0.467609
0.13641
0.0098736
0.118057
0.362408
0.118056
0.00987354
0.13641
0.46761
0.521444
0.175079
0.0216448
0.153605
0.406384
0.153603
0.0216447
0.17508
0.521444
0.540197
0.198494
0.0342525
0.175177
0.420575
0.175175
0.0342523
0.198495
0.540197
0.544044
0.213842
0.0469523
0.189189
0.422021
0.189186
0.046952
0.213843
0.544044
0.542158
0.225332
0.05954
0.199347
0.418362
0.199345
0.0595397
0.225333
0.542158
0.538382
0.235047
0.0719532
0.207604
0.412681
0.207602
0.0719529
0.235048
0.538382
0.534416
0.243899
0.0841919
0.214578
0.405807
0.214576
0.0841915
0.2439
0.534417
0.531129
0.252352
0.0963476
0.220148
0.397177
0.220145
0.0963472
0.252353
0.531129
0.52902
0.260469
0.108471
0.223472
0.384826
0.22347
0.10847
0.26047
0.52902
0.528362
0.268548
0.121111
0.222469
0.364376
0.222467
0.121111
0.268549
0.528362
0.527653
0.27251
0.131614
0.21147
0.325916
0.211468
0.131614
0.27251
0.527653
0.524649
0.278564
0.147372
0.177769
0.248421
0.177768
0.147371
0.278565
0.524649
0.504927
0.224515
0.0574488
0.0432856
0.0461989
0.0432856
0.057449
0.224516
0.504927
0.477859
0.209324
0.209325
0.477859
0.41635
0.255557
0.198361
0.330874
0.448458
0.330873
0.19836
0.255557
0.416349
0.231332
0.171742
0.157498
0.410465
0.652303
0.410465
0.157497
0.171742
0.231332
0.141812
0.413533
0.694106
0.413533
0.141811
0.137655
0.408414
0.698176
0.408413
0.137655
0.138211
0.405092
0.694372
0.405091
0.138211
0.140511
0.403464
0.689214
0.403463
0.140511
0.143403
0.402655
0.683965
0.402654
0.143403
0.146467
0.402173
0.678809
0.402173
0.146467
0.149556
0.401811
0.673755
0.40181
0.149556
0.152627
0.401483
0.668773
0.401482
0.152627
0.155635
0.401169
0.663912
0.401169
0.155635
0.1587
0.400827
0.658928
0.400827
0.1587
0.161256
0.400565
0.654824
0.400564
0.161257
0.16584
0.399986
0.647291
0.399986
0.16584
4.28303e-13
4.24056e-13
5.83722e-13
3.37466e-13
-1.50516e-12
3.37624e-13
5.83807e-13
4.24098e-13
4.28268e-13
-1.79292e-13
-2.82365e-13
-8.78022e-13
2.64823e-12
1.22571e-11
2.64767e-12
-8.78122e-13
-2.82346e-13
-1.79278e-13
2.4808e-12
2.94151e-12
3.41757e-12
-1.54777e-11
-5.24017e-11
-1.54766e-11
3.41763e-12
2.94118e-12
2.4808e-12
-1.54395e-11
-1.49396e-11
-1.62619e-11
7.25762e-11
2.38695e-10
7.25717e-11
-1.62628e-11
-1.49398e-11
-1.54395e-11
8.90547e-11
7.64084e-11
8.55236e-11
-3.29999e-10
-1.1329e-09
-3.29974e-10
8.55271e-11
7.64074e-11
8.90547e-11
-4.87693e-10
-3.80185e-10
-4.76508e-10
1.47416e-09
5.53673e-09
1.47404e-09
-4.76524e-10
-3.80182e-10
-4.87695e-10
2.60513e-09
1.85665e-09
2.66218e-09
-6.50596e-09
-2.75768e-08
-6.50541e-09
2.66224e-09
1.85663e-09
2.60514e-09
-1.37127e-08
-8.90419e-09
-1.47701e-08
2.81177e-08
1.38922e-07
2.8115e-08
-1.47702e-08
-8.90409e-09
-1.37128e-08
7.14456e-08
4.18273e-08
8.10729e-08
-1.17344e-07
-7.04645e-07
-1.17331e-07
8.10734e-08
4.18268e-08
7.14461e-08
-3.69359e-07
-1.91634e-07
-4.40343e-07
4.60651e-07
3.5886e-06
4.6059e-07
-4.40343e-07
-1.91631e-07
-3.69362e-07
1.89604e-06
8.49494e-07
2.36738e-06
-1.60459e-06
-1.83176e-05
-1.6043e-06
2.36737e-06
8.49481e-07
1.89606e-06
-9.64289e-06
-3.59416e-06
-1.25986e-05
4.05364e-06
9.35609e-05
4.05241e-06
-1.25985e-05
-3.5941e-06
-9.64299e-06
4.79562e-05
1.39131e-05
6.62104e-05
3.65091e-06
-0.000477303
3.65594e-06
6.62097e-05
1.39129e-05
4.79566e-05
-0.00022774
-4.45704e-05
-0.000340591
-0.000177108
0.00241275
-0.000177127
-0.000340587
-4.45697e-05
-0.000227741
0.00095494
7.04535e-05
0.00166165
0.00214668
-0.011686
0.00214673
0.00166163
7.04519e-05
0.000954946
-0.00250186
0.000485282
-0.00679182
-0.0229969
0.0420627
-0.0229969
-0.00679173
0.000485281
-0.00250187
-0.00975223
-0.00463586
0.00939234
0.223767
0.593548
0.223766
0.00939212
-0.00463583
-0.00975223
0.00861944
-0.00762787
0.0763015
0.506321
0.876096
0.506319
0.0763006
-0.00762784
0.00861948
0.0342736
-0.00378559
0.136411
0.644719
0.956159
0.644717
0.13641
-0.0037856
0.0342737
0.0546257
0.00427677
0.175081
0.697278
0.969207
0.697275
0.175079
0.0042767
0.0546259
0.0687784
0.0139829
0.198496
0.711753
0.961057
0.71175
0.198494
0.0139828
0.0687787
0.0789678
0.0241217
0.213844
0.711152
0.94636
0.711149
0.213841
0.0241216
0.0789682
0.0870961
0.0342704
0.225334
0.705022
0.929892
0.705019
0.225331
0.0342702
0.0870965
0.0942927
0.0443373
0.235048
0.696764
0.912855
0.696761
0.235045
0.0443369
0.094293
0.101203
0.0543723
0.2439
0.687428
0.895241
0.687424
0.243897
0.0543719
0.101203
0.108275
0.0645463
0.252352
0.67689
0.876363
0.676887
0.252349
0.0645459
0.108276
0.115915
0.0751327
0.260468
0.663721
0.85413
0.663718
0.260465
0.0751322
0.115915
0.124514
0.0868462
0.268546
0.645225
0.824838
0.645222
0.268544
0.0868458
0.124514
0.134123
0.0997879
0.272507
0.61059
0.77483
0.610588
0.272505
0.0997874
0.134123
0.143756
0.117096
0.278561
0.5572
0.699635
0.557198
0.278559
0.117096
0.143756
0.149295
0.12945
0.224512
0.382061
0.467776
0.38206
0.224511
0.12945
0.149295
0.142298
0.137006
0.209322
0.322287
0.391835
0.322287
0.209321
0.137006
0.142298
0.10731
0.114039
0.255553
0.493229
0.593408
0.493228
0.255552
0.114039
0.10731
0.0436524
0.0353651
0.171738
0.58982
0.879519
0.589819
0.171737
0.035365
0.0436524
4.18036e-13
4.28285e-13
6.20483e-13
4.23904e-13
-1.6765e-12
4.23895e-13
6.20469e-13
4.28268e-13
4.18026e-13
1.34033e-13
-1.79286e-13
-1.07487e-12
3.78315e-12
1.82083e-11
3.78258e-12
-1.07505e-12
-1.79279e-13
1.34056e-13
9.79178e-13
2.48102e-12
2.65441e-12
-3.44108e-11
-9.90683e-11
-3.4409e-11
2.65433e-12
2.4808e-12
9.79193e-13
-5.26098e-12
-1.54397e-11
-1.01025e-11
2.1259e-10
5.21968e-10
2.1258e-10
-1.01054e-11
-1.54395e-11
-5.26081e-12
3.04024e-11
8.90569e-11
3.70521e-11
-1.18891e-09
-2.73585e-09
-1.18886e-09
3.70664e-11
8.90548e-11
3.04018e-11
-1.53574e-10
-4.87706e-10
-2.21529e-10
6.32343e-09
1.43156e-08
6.32318e-09
-2.21605e-10
-4.87695e-10
-1.5357e-10
7.28905e-10
2.6052e-09
1.58822e-09
-3.28984e-08
-7.49078e-08
-3.28972e-08
1.58859e-09
2.60514e-09