/*--------------------------------*- C++ -*----------------------------------*\
  =========                 |
  \\      /  F ield         | OpenFOAM: The Open Source CFD Toolbox
   \\    /   O peration     | Website:  https://openfoam.org
    \\  /    A nd           | Version:  6
     \\/     M anipulation  |
\*---------------------------------------------------------------------------*/
FoamFile
{
    version     2.0;
    format      ascii;
    class       volScalarField;
    location    "0.9";
    object      alpha_exh;
}
// * * * * * * * * * * * * * * * * * * * * * * * * * * * * * * * * * * * * * //

dimensions      [0 0 0 0 0 0 0];

internalField   nonuniform List<scalar> 
3029
(
1.79558e-07
-1.0572e-06
-3.93457e-07
-6.60205e-06
8.90241e-06
-6.0759e-06
-1.69897e-07
-9.446e-07
-4.93603e-07
-5.28517e-07
-1.8158e-06
-1.07832e-06
-9.01755e-06
8.14842e-06
-8.16179e-06
-6.82643e-07
-1.33575e-06
-6.14584e-07
-1.97504e-06
-4.67924e-06
-4.1923e-06
-1.33219e-05
1.56011e-05
-1.18651e-05
-2.87286e-06
-3.20088e-06
-1.84811e-06
-4.24721e-06
-8.84371e-06
-8.63174e-06
-1.81524e-05
3.57431e-05
-1.59123e-05
-5.94563e-06
-5.90417e-06
-3.86702e-06
-7.41249e-06
-1.41025e-05
-1.3624e-05
-2.15049e-05
7.80586e-05
-1.84052e-05
-9.33177e-06
-9.20957e-06
-6.44253e-06
-1.08583e-05
-1.94178e-05
-1.76352e-05
-1.84242e-05
0.000161685
-1.44512e-05
-1.16684e-05
-1.23899e-05
-9.13e-06
-1.43735e-05
-2.43737e-05
-1.89064e-05
7.43791e-07
0.000320227
5.58694e-06
-1.12159e-05
-1.49266e-05
-1.14492e-05
-1.60834e-05
-2.61756e-05
-1.1661e-05
5.80441e-05
0.000612468
6.37358e-05
-2.29512e-06
-1.44236e-05
-1.19778e-05
-1.31863e-05
-2.04621e-05
1.54404e-05
0.00019731
0.00113701
0.000203839
2.65041e-05
-6.23876e-06
-7.43818e-06
3.98513e-06
6.95576e-06
9.17909e-05
0.000498979
0.00203777
0.000506312
0.000104458
2.33716e-05
1.11856e-05
5.58147e-05
8.34573e-05
0.000270476
0.00112633
0.00359903
0.00113443
0.00028476
0.000102218
6.49494e-05
0.000191741
0.000284824
0.000702514
0.00227137
0.00592775
0.00228015
0.000718271
0.000305553
0.000202501
0.000513964
0.000710115
0.00148167
0.00466841
0.0106739
0.00467776
0.00149885
0.00073294
0.000526886
0.00119826
0.00176111
0.00375422
0.00760603
0.0128669
0.00761574
0.00377253
0.00178555
0.00121297
0.00262582
0.00323665
0.00476591
0.0199238
0.0457294
0.0199331
0.00478494
0.00326275
0.0026429
0.00466944
0.00756345
0.0255915
0.0163538
-0.108935
0.0163618
0.02561
0.00759046
0.00468852
0.0092191
0.0162129
-0.0153389
-0.21062
-0.330503
-0.210616
-0.0153234
0.0162402
0.00924066
0.0161201
0.018292
-0.0763846
-0.268009
-0.267941
-0.268008
-0.0763724
0.0183184
0.0161434
0.0238144
0.0195706
-0.103408
-0.271522
-0.246521
-0.271521
-0.103397
0.0195965
0.0238392
0.0322121
0.0240851
-0.106769
-0.26076
-0.234565
-0.260759
-0.106759
0.0241106
0.0322376
0.0418623
0.0322064
-0.0983647
-0.245736
-0.224035
-0.245734
-0.098354
0.0322317
0.0418885
0.0533143
0.043417
-0.0844408
-0.229255
-0.213354
-0.229253
-0.0844298
0.0434419
0.0533406
0.0669597
0.0572929
-0.0677394
-0.212208
-0.202284
-0.212206
-0.0677281
0.0573174
0.0669863
0.0830408
0.0735878
-0.0493922
-0.194898
-0.190877
-0.194895
-0.0493809
0.0736116
0.0830672
0.101667
0.0921188
-0.0299273
-0.177422
-0.179208
-0.177419
-0.029916
0.0921418
0.101693
0.122824
0.112667
-0.00968677
-0.159814
-0.167333
-0.159811
-0.0096756
0.112689
0.122849
0.146355
0.134917
0.0110602
-0.141975
-0.155195
-0.141972
0.011071
0.134938
0.14638
0.171943
0.158392
0.0318586
-0.12406
-0.143133
-0.124057
0.0318688
0.158411
0.171967
0.199065
0.182616
0.0535031
-0.104003
-0.129005
-0.104
0.0535126
0.182634
0.199089
0.227126
0.20717
0.0746187
-0.085001
-0.117415
-0.0849983
0.0746274
0.207186
0.227149
0.255298
0.232576
0.105732
-0.044289
-0.0805453
-0.0442866
0.10574
0.232591
0.25532
0.286657
0.261527
0.136482
-0.0168916
-0.0602193
-0.0168895
0.136489
0.26154
0.286678
0.325655
0.302953
0.174144
-0.0180896
-0.0854552
-0.0180876
0.174151
0.302966
0.325676
0.428266
0.417362
0.325505
0.0939282
-0.0635408
0.0939305
0.325513
0.417376
0.428284
-1.08849e-06
-4.47575e-06
-8.22882e-06
-6.87547e-06
7.42956e-05
-4.96001e-06
-6.64586e-06
-3.40257e-06
-1.27269e-06
-1.79925e-06
-6.07071e-06
-9.99666e-06
-9.09429e-06
7.63401e-05
-6.66208e-06
-7.78079e-06
-4.16656e-06
-1.28432e-06
-4.6151e-06
-9.21233e-06
-1.35649e-05
-1.17843e-05
9.03343e-05
-8.6179e-06
-1.02257e-05
-6.0298e-06
-2.92169e-06
-8.72025e-06
-1.40995e-05
-1.78696e-05
-1.31552e-05
0.000129418
-9.07862e-06
-1.2942e-05
-8.99558e-06
-5.31373e-06
-1.38946e-05
-2.03339e-05
-2.18021e-05
-7.69701e-06
0.000220918
-2.64517e-06
-1.50632e-05
-1.28473e-05
-8.2883e-06
-1.91017e-05
-2.64275e-05
-2.23144e-05
1.96605e-05
0.000414633
2.57115e-05
-1.36147e-05
-1.62628e-05
-1.09952e-05
-2.39324e-05
-3.09704e-05
-1.41603e-05
9.8624e-05
0.000788998
0.000105648
-3.51771e-06
-1.80195e-05
-1.30876e-05
-2.5599e-05
-2.90638e-05
1.68118e-05
0.00028697
0.00146456
0.000294949
2.94264e-05
-1.33024e-05
-1.20318e-05
-1.97436e-05
-1.12951e-05
9.89865e-05
0.0006837
0.00261641
0.000692579
0.000113469
7.21654e-06
-3.3742e-06
7.81468e-06
4.64489e-05
0.000293717
0.0014544
0.00448896
0.00146414
0.000310057
6.76111e-05
2.6792e-05
8.44545e-05
0.000193673
0.000711848
0.00285027
0.00742784
0.00286077
0.000729894
0.00021736
0.000106091
0.000285957
0.000538043
0.00157357
0.00526043
0.0118024
0.00527158
0.00159327
0.000564085
0.000309953
0.000711389
0.00126412
0.00315683
0.00912985
0.018374
0.00914147
0.00317792
0.00129233
0.000737766
0.00176254
0.00273404
0.00627479
0.0155331
0.0263968
0.0155449
0.00629707
0.00276414
0.00179093
0.00323827
0.00540324
0.01044
0.023015
0.0423789
0.0230266
0.010463
0.0054349
0.00326865
0.00756542
0.00963696
0.0216871
0.0483746
0.0406466
0.0483851
0.0217099
0.00966968
0.00759735
0.0162157
0.0183281
0.0279896
-0.0310876
-0.168432
-0.0310796
0.0280108
0.0183613
0.0162489
0.0182954
0.028602
0.0185363
-0.116034
-0.245657
-0.116028
0.0185555
0.0286349
0.0183287
0.0195743
0.038241
0.0122385
-0.148761
-0.253864
-0.148756
0.0122565
0.0382735
0.0196075
0.0240889
0.0480598
0.0141829
-0.151623
-0.242638
-0.151618
0.0142004
0.0480918
0.0241217
0.0322101
0.0591068
0.022554
-0.140997
-0.225383
-0.140992
0.0225712
0.0591381
0.0322427
0.0434206
0.0720189
0.0351662
-0.124515
-0.205911
-0.12451
0.0351832
0.0720493
0.0434525
0.0572964
0.0871031
0.0507215
-0.105332
-0.185413
-0.105327
0.0507381
0.0871325
0.0573276
0.0735912
0.104467
0.0685395
-0.0845568
-0.164132
-0.0845511
0.0685556
0.104495
0.0736214
0.0921221
0.12409
0.0882764
-0.0625047
-0.141945
-0.062499
0.0882919
0.124117
0.0921512
0.112671
0.145832
0.109693
-0.0390487
-0.118466
-0.0390431
0.109708
0.145857
0.112698
0.13492
0.169529
0.132883
-0.0132474
-0.0924044
-0.0132421
0.132897
0.169552
0.134947
0.158395
0.194531
0.157232
0.0160948
-0.0619894
0.0160996
0.157244
0.194553
0.15842
0.182619
0.221644
0.1882
0.0583142
-0.0160155
0.0583184
0.188211
0.221663
0.182642
0.207173
0.245311
0.20982
0.105057
0.0389795
0.105061
0.20983
0.245328
0.207194
0.23258
0.280109
0.322205
0.286454
0.254198
0.286456
0.322212
0.280123
0.232598
0.26153
0.300535
0.361782
0.354128
0.331204
0.35413
0.361788
0.300548
0.261548
0.302955
0.314784
0.306597
0.232032
0.192293
0.232033
0.306603
0.314797
0.302972
0.417364
0.419426
0.360796
0.146678
-0.0151078
0.146681
0.360805
0.41944
0.417378
-4.143e-07
-8.00828e-06
9.18583e-06
-8.60151e-05
-0.000220612
-8.24631e-05
1.22e-05
-6.21305e-06
-3.81397e-07
-9.88514e-07
-9.58654e-06
7.32855e-06
-8.64246e-05
-0.000146576
-8.22425e-05
1.122e-05
-6.90289e-06
-4.00844e-07
-3.86716e-06
-1.28886e-05
5.42654e-06
-7.71798e-05
5.0418e-05
-7.22695e-05
1.04918e-05
-8.80085e-06
-1.90127e-06
-7.95846e-06
-1.68152e-05
3.99941e-06
-2.92126e-05
0.000456362
-2.34981e-05
1.05475e-05
-1.07329e-05
-3.93565e-06
-1.25037e-05
-2.02815e-05
7.74079e-06
0.00010905
0.00118808
0.000115584
1.59168e-05
-1.19474e-05
-6.1777e-06
-1.60028e-05
-2.02803e-05
3.14425e-05
0.000421764
0.00239905
0.000429099
4.13176e-05
-9.48123e-06
-7.13792e-06
-1.67302e-05
-1.16018e-05
0.00010484
0.00103357
0.00428225
0.00104166
0.000116395
1.63376e-06
-5.3571e-06
-8.93789e-06
1.98752e-05
0.000286144
0.00212542
0.00708103
0.00213422
0.000299354
3.55952e-05
5.00382e-06
1.87e-05
0.000102518
0.000675439
0.00394631
0.0110937
0.00395573
0.000690231
0.000120585
3.51076e-05
9.55585e-05
0.00029767
0.00144098
0.00683095
0.0166815
0.00684092
0.00145729
0.000318067
0.000114416
0.000274719
0.000716169
0.00284074
0.0111983
0.0242506
0.0112088
0.00285845
0.000738709
0.000295898
0.000707196
0.00157821
0.00525874
0.0175603
0.0342537
0.017571
0.0052777
0.00160282
0.000730618
0.00148677
0.00316172
0.00918616
0.0263829
0.0469231
0.0263937
0.00920619
0.00318815
0.00151227
0.00375977
0.00627994
0.015283
0.0383203
0.0628318
0.038331
0.0153038
0.00630801
0.00378718
0.00477195
0.0104454
0.0239696
0.0521923
0.0781886
0.0522028
0.023991
0.0104747
0.00480087
0.0255989
0.0216931
0.0356926
0.071575
0.105606
0.071585
0.0357144
0.0217233
0.0256292
-0.0153311
0.0279965
0.0504475
0.0834422
0.0737467
0.0834516
0.0504693
0.0280265
-0.0153031
-0.0763778
0.0185434
0.0645351
0.0762605
0.0124973
0.0762692
0.0645566
0.0185722
-0.0763538
-0.103402
0.0122455
0.0774973
0.0724879
-0.0133255
0.0724962
0.0775183
0.012273
-0.10338
-0.106763
0.0141896
0.0909186
0.0780773
-0.0124032
0.0780852
0.090939
0.0142162
-0.106743
-0.0983594
0.0225604
0.105836
0.0909579
0.00247234
0.0909657
0.105855
0.0225862
-0.0983387
-0.0844356
0.0351722
0.122688
0.108506
0.0240771
0.108513
0.122707
0.0351972
-0.0844152
-0.0677344
0.0507271
0.141568
0.129122
0.0490992
0.129129
0.141585
0.0507512
-0.0677141
-0.0493874
0.0685448
0.16244
0.151949
0.0762183
0.151956
0.162457
0.0685678
-0.0493676
-0.0299227
0.0882814
0.185236
0.176689
0.105107
0.176695
0.185251
0.0883032
-0.0299034
-0.00968225
0.109698
0.209887
0.203488
0.136209
0.203494
0.209902
0.109718
-0.00966379
0.0110645
0.132888
0.236665
0.233203
0.171082
0.233208
0.236678
0.132907
0.0110821
0.0318628
0.157236
0.265511
0.267913
0.213315
0.267917
0.265523
0.157253
0.0318792
0.0535072
0.188204
0.302694
0.314803
0.272834
0.314807
0.302704
0.18822
0.0535224
0.0746227
0.209824
0.335838
0.384355
0.366777
0.384357
0.335846
0.209837
0.0746367
0.105736
0.322208
0.571534
0.623859
0.642511
0.623859
0.571535
0.322217
0.105748
0.136486
0.361785
0.361792
0.136498
0.174148
0.3066
0.355054
0.337701
0.306502
0.337703
0.355061
0.306609
0.17416
0.325509
0.3608
0.37512
0.27025
0.154758
0.270253
0.375129
0.360812
0.32552
0.389531
0.265759
0.123738
0.265763
0.38954
0.400849
0.273053
0.122667
0.273056
0.400858
0.410474
0.281659
0.128798
0.281663
0.410483
0.419389
0.289991
0.1365
0.289994
0.419398
0.427979
0.298022
0.144505
0.298025
0.427988
0.436398
0.305871
0.152537
0.305874
0.436406
0.444693
0.313605
0.160539
0.313608
0.444702
0.452892
0.321267
0.168523
0.321269
0.4529
0.460937
0.328801
0.176403
0.328803
0.460945
0.46911
0.336511
0.184545
0.336513
0.469118
0.476056
0.343016
0.191343
0.343018
0.476063
0.488222
0.354703
0.203932
0.354705
0.488229
-6.38271e-06
-5.54498e-06
-8.43516e-05
0.00124847
0.00878544
0.00125403
-7.92976e-05
-2.37908e-06
-6.00316e-06
-8.17635e-06
-7.12661e-06
-8.43308e-05
0.00146957
0.00957731
0.00147565
-7.84294e-05
-2.92331e-06
-6.3275e-06
-1.177e-05
-9.01923e-06
-7.45866e-05
0.00200445
0.0112986
0.00201107
-6.764e-05
-3.43293e-06
-8.44698e-06
-1.57299e-05
-9.41306e-06
-2.60524e-05
0.00297025
0.0140668
0.00297739
-1.78846e-05
-2.06738e-06
-1.0502e-05
-1.80882e-05
-2.86848e-06
0.000112802
0.00452255
0.0180052
0.00453015
0.00012225
6.35808e-06
-1.0935e-05
-1.39583e-05
2.56013e-05
0.000426091
0.0068649
0.0232749
0.0068729
0.000436825
3.68152e-05
-4.66917e-06
6.26183e-06
0.000105643
0.00103843
0.0102477
0.0300755
0.010256
0.0010504
0.000118804
1.7561e-05
6.45748e-05
0.000294991
0.00213076
0.0149735
0.0386477
0.0149821
0.0021439
0.000310098
7.80034e-05
0.000204797
0.000692625
0.00395204
0.0213938
0.0492657
0.0214025
0.00396627
0.000709578
0.000220185
0.000507342
0.00146411
0.00683702
0.0299052
0.0622271
0.0299139
0.00685221
0.00148286
0.000524759
0.00113549
0.00286064
0.0112047
0.0409228
0.0778194
0.0409313
0.0112207
0.00288103
0.00115474
0.00228123
0.00527132
0.0175668
0.0548358
0.0962748
0.054844
0.0175835
0.00529323
0.00230232
0.0046789
0.00914114
0.0263895
0.0718811
0.117615
0.071889
0.0264066
0.00916436
0.00470161
0.00761705
0.0155446
0.038327
0.0919622
0.141574
0.0919697
0.0383444
0.0155689
0.00764124
0.0199356
0.0230268
0.0521991
0.114213
0.166596
0.11422
0.0522167
0.0230518
0.019961
0.016366
0.0483872
0.0715821
0.136494
0.19149
0.136501
0.0716002
0.048413
0.0163914
-0.210614
-0.0310769
0.0834501
0.158852
0.213826
0.158859
0.0834687
-0.0310543
-0.210598
-0.268007
-0.116026
0.0762685
0.179227
0.227239
0.179234
0.0762868
-0.116008
-0.267996
-0.27152
-0.148755
0.0724957
0.198448
0.240443
0.198455
0.0725133
-0.148739
-0.271512
-0.260759
-0.151618
0.0780846
0.218355
0.257454
0.218362
0.0781014
-0.151602
-0.26075
-0.245735
-0.140992
0.0909649
0.239812
0.278094
0.239818
0.0909807
-0.140977
-0.245726
-0.229255
-0.124511
0.108512
0.262924
0.301284
0.26293
0.108527
-0.124496
-0.229245
-0.212208
-0.105328
0.129128
0.287546
0.326203
0.28755
0.129142
-0.105314
-0.212198
-0.194898
-0.0845531
0.151955
0.313467
0.352338
0.313471
0.151968
-0.0845393
-0.194888
-0.177422
-0.0625013
0.176695
0.340616
0.379507
0.340619
0.176706
-0.0624882
-0.177412
-0.159815
-0.0390457
0.203494
0.369144
0.407863
0.369147
0.203504
-0.0390333
-0.159805
-0.141976
-0.0132448
0.233208
0.39964
0.438049
0.399643
0.233218
-0.0132331
-0.141967
-0.124062
0.0160971
0.267918
0.43384
0.471794
0.433842
0.267927
0.0161078
-0.124053
-0.104005
0.0583164
0.314808
0.475502
0.512872
0.475504
0.314815
0.0583261
-0.103997
-0.0850032
0.10506
0.384359
0.538184
0.571943
0.538184
0.384363
0.105068
-0.0849958
-0.0442907
0.286457
0.623862
0.658334
0.67943
0.658333
0.623862
0.286462
-0.0442842
-0.0168931
0.354131
0.354135
-0.0168874
-0.0180906
0.232034
0.337704
0.391678
0.389006
0.39168
0.337707
0.232038
-0.0180846
0.0939292
0.14668
0.270252
0.363034
0.348483
0.363037
0.270258
0.146686
0.0939345
0.265762
0.349926
0.329926
0.349929
0.265768
0.273055
0.348852
0.326368
0.348856
0.273062
0.281661
0.352706
0.329071
0.352711
0.281668
0.289993
0.358295
0.334017
0.358299
0.29
0.298024
0.36443
0.339698
0.364434
0.298031
0.305873
0.370699
0.345583
0.370703
0.30588
0.313607
0.37696
0.351486
0.376964
0.313613
0.321269
0.383176
0.357358
0.38318
0.321275
0.328803
0.389284
0.36313
0.389288
0.328809
0.336513
0.395499
0.369019
0.395503
0.336519
0.343018
0.400783
0.374003
0.400786
0.343024
0.354705
0.410091
0.38287
0.410095
0.354711
1.08501e-05
7.89036e-05
-0.000214291
0.00879103
0.0387168
0.00879662
-0.000208484
8.26469e-05
1.11649e-05
1.14418e-05
8.2072e-05
-0.000139458
0.00958319
0.040437
0.00958906
-0.000133056
8.68656e-05
1.39006e-05
2.01693e-05
9.73066e-05
5.83632e-05
0.0113047
0.0439262
0.0113108
6.5475e-05
0.000103264
2.41333e-05
4.16308e-05
0.000137742
0.000465148
0.0140731
0.0491578
0.0140794
0.000473074
0.000145048
4.71843e-05
8.5298e-05
0.000230628
0.00119767
0.0180116
0.0560736
0.018018
0.00120643
0.000239318
9.228e-05
0.000170254
0.000425681
0.00240936
0.0232813
0.0646747
0.0232877
0.00241894
0.00043582
0.000178839
0.000330068
0.000801293
0.00429316
0.0300817
0.0750314
0.0300881
0.00430353
0.000812845
0.000340109
0.000623491
0.00147797
0.00709242
0.0386539
0.0872793
0.0386601
0.0071035
0.00149093
0.000635134
0.00114911
0.00263078
0.0111055
0.0492717
0.101599
0.0492778
0.0111172
0.00264508
0.00116219
0.00205084
0.00450411
0.0166935
0.0622328
0.118195
0.0622386
0.0167057
0.0045197
0.00206546
0.00361292
0.00744358
0.0242626
0.0778248
0.13726
0.0778303
0.0242752
0.00746035
0.00362891
0.00594232
0.0118185
0.0342656
0.0962798
0.158927
0.0962849
0.0342785
0.0118364
0.00595972
0.010689
0.0183903
0.0469348
0.11762
0.183176
0.117625
0.0469478
0.0184091
0.0107077
0.0128823
0.0264131
0.0628433
0.141578
0.209676
0.141582
0.0628564
0.0264326
0.012902
0.0457455
0.042395
0.0781998
0.1666
0.237603
0.166604
0.078213
0.0424154
0.0457669
-0.108924
0.0406618
0.105617
0.191494
0.265041
0.191498
0.105632
0.0406826
-0.108906
-0.3305
-0.168424
0.0737578
0.213831
0.291416
0.213835
0.0737725
-0.168409
-0.330491
-0.26794
-0.245654
0.0125067
0.227243
0.31649
0.227248
0.0125205
-0.245643
-0.267933
-0.24652
-0.253862
-0.0133173
0.240448
0.340149
0.240453
-0.0133044
-0.253852
-0.246513
-0.234565
-0.242637
-0.0123959
0.257458
0.363025
0.257462
-0.0123837
-0.242627
-0.234558
-0.224035
-0.225381
0.00247903
0.278099
0.385786
0.278102
0.00249041
-0.225372
-0.224028
-0.213355
-0.20591
0.0240832
0.301288
0.408815
0.301291
0.0240939
-0.205901
-0.213347
-0.202285
-0.185413
0.0491049
0.326207
0.432268
0.326209
0.0491148
-0.185403
-0.202278
-0.190879
-0.164132
0.0762235
0.352342
0.456151
0.352344
0.0762327
-0.164122
-0.190871
-0.17921
-0.141946
0.105112
0.37951
0.480454
0.379512
0.10512
-0.141936
-0.179203
-0.167336
-0.118467
0.136213
0.407866
0.505211
0.407868
0.136221
-0.118459
-0.167329
-0.155199
-0.0924071
0.171086
0.438052
0.53061
0.438053
0.171093
-0.0923986
-0.155192
-0.143139
-0.0619927
0.213319
0.471797
0.557226
0.471797
0.213325
-0.0619848
-0.143132
-0.129011
-0.016019
0.272838
0.512875
0.586753
0.512875
0.272842
-0.0160118
-0.129005
-0.117422
0.0389768
0.36678
0.571945
0.623213
0.571945
0.366783
0.0389828
-0.117416
-0.0805524
0.254197
0.642514
0.679432
0.703175
0.679431
0.642514
0.254201
-0.0805475
-0.0602267
0.331204
0.331206
-0.0602227
-0.0854638
0.19229
0.306502
0.389006
0.436391
0.389007
0.306503
0.192292
-0.0854596
-0.0635506
-0.0151165
0.154754
0.348482
0.435445
0.348483
0.154757
-0.0151126
-0.063547
0.123733
0.329924
0.435362
0.329925
0.123736
0.122662
0.326366
0.437146
0.326368
0.122665
0.128793
0.329069
0.440165
0.32907
0.128797
0.136494
0.334015
0.443734
0.334017
0.136499
0.144499
0.339696
0.447498
0.339698
0.144504
0.152532
0.34558
0.451305
0.345583
0.152536
0.160534
0.351484
0.455093
0.351486
0.160539
0.168518
0.357356
0.458846
0.357358
0.168522
0.176397
0.363128
0.462535
0.363131
0.176402
0.18454
0.369017
0.466271
0.36902
0.184544
0.191338
0.374001
0.469496
0.374004
0.191342
0.203927
0.382867
0.475046
0.382871
0.203931
-4.95856e-06
-1.6206e-06
-7.73179e-05
0.00125994
0.00879959
0.00126251
-7.49394e-05
-2.04348e-07
-5.20406e-06
-6.32434e-06
-2.54126e-06
-7.63938e-05
0.00148196
0.00959211
0.00148474
-7.36462e-05
-5.54728e-07
-5.53512e-06
-8.92171e-06
-3.36151e-06
-6.55573e-05
0.00201778
0.0113139
0.00202082
-6.22917e-05
-6.45978e-07
-7.37613e-06
-1.15726e-05
-2.40056e-06
-1.57877e-05
0.0029845
0.0140825
0.00298783
-1.18553e-05
1.28266e-06
-8.99133e-06
-1.25357e-05
5.58279e-06
0.00012433
0.00453763
0.0180211
0.00454125
0.000129003
1.03358e-05
-8.96102e-06
-7.04248e-06
3.54814e-05
0.00043883
0.00688065
0.0232908
0.00688454
0.000444281
4.1407e-05
-2.22726e-06
1.44819e-05
0.000116876
0.00105228
0.010264
0.0300912
0.0102681
0.0010585
0.000123986
2.04268e-05
7.40129e-05
0.00030749
0.00214558
0.0149901
0.038663
0.0149944
0.00215255
0.000315803
8.12729e-05
0.000215378
0.000706268
0.00396769
0.0214104
0.0492805
0.0214148
0.00397537
0.000715753
0.000223801
0.000518962
0.00147878
0.0068533
0.0299216
0.0622411
0.029926
0.00686161
0.00148941
0.000528695
0.00114804
0.00287615
0.0112214
0.0409387
0.0778326
0.0409431
0.0112302
0.00288786
0.00115892
0.00229454
0.00528748
0.0175836
0.0548511
0.096287
0.0548553
0.017593
0.0053002
0.00230668
0.00469277
0.00915765
0.0264062
0.0718955
0.117626
0.0718995
0.0264159
0.00917131
0.00470601
0.00763113
0.0155611
0.0383432
0.0919758
0.141584
0.0919795
0.0383532
0.0155757
0.00764557
0.019949
0.0230426
0.0522147
0.114226
0.166605
0.114229
0.0522249
0.0230579
0.0199648
0.016377
0.0484012
0.0715967
0.136506
0.191499
0.136509
0.0716075
0.048418
0.0163943
-0.210609
-0.0310667
0.0834633
0.158864
0.213836
0.158867
0.0834748
-0.0310511
-0.210597
-0.268005
-0.11602
0.0762801
0.179239
0.227249
0.179242
0.0762919
-0.116006
-0.267996
-0.271519
-0.148749
0.0725062
0.198459
0.240453
0.198462
0.0725177
-0.148737
-0.271512
-0.260758
-0.151613
0.0780943
0.218366
0.257463
0.218369
0.0781052
-0.151601
-0.26075
-0.245734
-0.140988
0.0909737
0.239822
0.278103
0.239825
0.090984
-0.140977
-0.245726
-0.229254
-0.124507
0.10852
0.262933
0.301291
0.262936
0.10853
-0.124496
-0.229246
-0.212207
-0.105324
0.129135
0.287554
0.32621
0.287556
0.129144
-0.105314
-0.212199
-0.194897
-0.0845501
0.151961
0.313474
0.352345
0.313476
0.15197
-0.0845402
-0.194889
-0.177421
-0.0624993
0.176699
0.340622
0.379513
0.340623
0.176707
-0.0624898
-0.177413
-0.159815
-0.0390448
0.203497
0.369149
0.407869
0.36915
0.203504
-0.0390357
-0.159807
-0.141976
-0.0132452
0.23321
0.399645
0.438054
0.399646
0.233216
-0.0132366
-0.141969
-0.124064
0.0160953
0.267919
0.433844
0.471799
0.433844
0.267924
0.0161032
-0.124057
-0.104008
0.0583133
0.314808
0.475505
0.512876
0.475506
0.314812
0.0583204
-0.104001
-0.085007
0.105056
0.384358
0.538186
0.571946
0.538186
0.38436
0.105061
-0.0850012
-0.0442958
0.286454
0.623862
0.658335
0.679432
0.658334
0.623862
0.286457
-0.0442907
-0.0168992
0.354128
0.354129
-0.0168948
-0.0180989
0.232028
0.337699
0.391676
0.389006
0.391676
0.337701
0.23203
-0.0180938
0.0939177
0.146669
0.270245
0.363031
0.348482
0.363033
0.270249
0.146675
0.0939235
0.265754
0.349923
0.329923
0.349924
0.265759
0.273047
0.34885
0.326366
0.348852
0.273053
0.281654
0.352704
0.329069
0.352707
0.281659
0.289985
0.358293
0.334015
0.358296
0.289991
0.298016
0.364428
0.339697
0.364431
0.298021
0.305865
0.370697
0.345581
0.3707
0.305871
0.313599
0.376958
0.351485
0.376961
0.313604
0.32126
0.383173
0.357357
0.383177
0.321266
0.328794
0.389282
0.363129
0.389285
0.328799
0.336505
0.395497
0.369018
0.3955
0.33651
0.343009
0.40078
0.374003
0.400783
0.343014
0.354696
0.410089
0.382869
0.410092
0.354701
1.20852e-07
-4.89159e-06
1.49746e-05
-7.59029e-05
-0.000206254
-7.47121e-05
1.59891e-05
-4.33046e-06
-1.8094e-08
-2.43113e-07
-5.6487e-06
1.44119e-05
-7.47352e-05
-0.000130727
-7.34043e-05
1.56584e-05
-4.7485e-06
-6.17499e-08
-1.58719e-06
-7.2726e-06
1.43516e-05
-6.35381e-05
6.79373e-05
-6.20095e-05
1.59465e-05
-5.9162e-06
-1.02078e-06
-3.44898e-06
-8.80493e-06
1.52892e-05
-1.32924e-05
0.000475696
-1.15137e-05
1.73529e-05
-6.78761e-06
-2.19484e-06
-5.45588e-06
-9.55412e-06
2.16406e-05
0.000127357
0.00120921
0.000129414
2.42521e-05
-6.75941e-06
-3.55161e-06
-6.37598e-06
-6.70025e-06
4.80168e-05
0.000442414
0.00242187
0.000444761
5.12218e-05
-3.04223e-06
-3.56031e-06
-4.54199e-06
4.75065e-06
0.00012401
0.00105641
0.00430657
0.00105904
0.000127829
9.32174e-06
-9.39505e-07
5.66738e-06
3.89259e-05
0.000307776
0.00215024
0.0071066
0.00215315
0.000312213
4.44113e-05
1.02832e-05
3.56458e-05
0.000124056
0.00069934
0.00397284
0.0111203
0.00397599
0.000704391
0.000130478
4.11023e-05
0.000114638
0.000321552
0.00146694
0.0068589
0.0167088
0.00686225
0.00147258
0.000328863
0.00012114
0.000295835
0.00074212
0.00286849
0.0112274
0.0242782
0.0112309
0.00287469
0.000750335
0.000303186
0.00073008
0.00160602
0.00528796
0.01759
0.0342813
0.0175936
0.00529467
0.00161506
0.000738471
0.00151125
0.00319102
0.00921649
0.0264129
0.0469504
0.0264165
0.00922365
0.00320088
0.00152048
0.00378537
0.00631031
0.015314
0.0383503
0.0628587
0.0383537
0.0153215
0.00632091
0.00379565
0.00479808
0.0104762
0.0240008
0.052222
0.078215
0.0522253
0.0240086
0.0104875
0.00480921
0.0256239
0.0217231
0.0357238
0.0716049
0.105633
0.0716078
0.0357316
0.0217352
0.0256368
-0.0153108
0.0280238
0.0504781
0.0834724
0.0737734
0.083475
0.0504861
0.0280369
-0.0152973
-0.0763625
0.0185675
0.0645649
0.0762896
0.0125206
0.076292
0.0645728
0.0185808
-0.0763498
-0.103389
0.0122674
0.0775259
0.0725153
-0.0133047
0.0725176
0.0775338
0.0122805
-0.103377
-0.106752
0.01421
0.0909458
0.0781028
-0.0123842
0.0781052
0.0909535
0.0142229
-0.10674
-0.0983482
0.0225796
0.105861
0.0909817
0.00248988
0.0909841
0.105869
0.0225921
-0.0983369
-0.084425
0.0351904
0.122712
0.108528
0.0240934
0.10853
0.12272
0.0352024
-0.0844138
-0.0677243
0.0507439
0.14159
0.129142
0.0491143
0.129145
0.141597
0.0507555
-0.0677134
-0.0493783
0.06856
0.16246
0.151968
0.0762323
0.15197
0.162467
0.068571
-0.0493676
-0.0299147
0.0882948
0.185254
0.176706
0.10512
0.176708
0.18526
0.0883052
-0.0299044
-0.00967579
0.109709
0.209903
0.203503
0.136221
0.203505
0.209909
0.109719
-0.00966593
0.0110692
0.132897
0.236678
0.233216
0.171093
0.233218
0.236683
0.132906
0.0110786
0.0318654
0.157242
0.265522
0.267925
0.213325
0.267926
0.265527
0.157251
0.0318743
0.0535077
0.188208
0.302702
0.314813
0.272843
0.314814
0.302706
0.188215
0.053516
0.074621
0.209825
0.335844
0.384363
0.366784
0.384363
0.335846
0.209831
0.0746284
0.105732
0.322208
0.571537
0.623864
0.642516
0.623863
0.571536
0.322212
0.105739
0.136481
0.361784
0.361786
0.136487
0.174142
0.306597
0.355055
0.337703
0.306502
0.337703
0.355057
0.306602
0.174149
0.325505
0.360798
0.375122
0.27025
0.154754
0.270251
0.375126
0.360804
0.325511
0.389533
0.26576
0.123733
0.265761
0.389537
0.400851
0.273053
0.122662
0.273054
0.400855
0.410476
0.28166
0.128793
0.281661
0.41048
0.419391
0.289991
0.136495
0.289992
0.419394
0.42798
0.298022
0.1445
0.298023
0.427984
0.436399
0.305871
0.152532
0.305872
0.436402
0.444694
0.313605
0.160535
0.313606
0.444697
0.452892
0.321267
0.168519
0.321267
0.452895
0.460938
0.3288
0.176398
0.328801
0.460941
0.469111
0.336511
0.184541
0.336512
0.469114
0.476056
0.343015
0.191339
0.343016
0.476059
0.488222
0.354703
0.203928
0.354703
0.488224
-6.35338e-07
-2.23434e-06
-4.82413e-06
-6.79303e-07
8.39517e-05
-8.43417e-08
-4.32164e-06
-1.88893e-06
-7.74769e-07
-9.05337e-07
-2.79671e-06
-5.35508e-06
-1.09047e-06
8.82218e-05
-4.32126e-07
-4.74255e-06
-2.19474e-06
-7.21868e-07
-2.18717e-06
-4.13258e-06
-6.7597e-06
-1.28756e-06
0.000104727
-4.91852e-07
-5.90905e-06
-3.23297e-06
-1.69366e-06
-4.02255e-06
-6.23547e-06
-7.97448e-06
4.99969e-07
0.000146656
1.485e-06
-6.77929e-06
-4.82844e-06
-2.94943e-06
-6.28561e-06
-9.02737e-06
-8.37467e-06
9.3837e-06
0.000241087
1.05962e-05
-6.74962e-06
-7.04169e-06
-4.70589e-06
-8.35827e-06
-1.13289e-05
-5.10349e-06
4.02737e-05
0.000437739
4.17213e-05
-3.03437e-06
-8.64167e-06
-5.98774e-06
-9.79663e-06
-1.20045e-05
6.76361e-06
0.000122652
0.000814894
0.000124348
9.32565e-06
-8.62326e-06
-6.82903e-06
-8.26698e-06
-6.31199e-06
4.13795e-05
0.000314264
0.00149307
0.000316198
4.44055e-05
-2.17817e-06
-4.41352e-06
8.47988e-07
1.50568e-05
0.000126926
0.00071399
0.00264727
0.000716165
0.00013046
1.99005e-05
5.32749e-06
3.12609e-05
7.61426e-05
0.000324837
0.00148742
0.00452189
0.00148982
0.000328825
8.17265e-05
3.66672e-05
0.000110783
0.000226429
0.000745791
0.00288566
0.00746249
0.00288825
0.000750274
0.000232699
0.000116815
0.000314649
0.000573517
0.00161007
0.00529782
0.0118384
0.00530055
0.00161497
0.000580482
0.000321613
0.000742435
0.00130196
0.00319543
0.00916878
0.018411
0.0091716
0.00320076
0.00130956
0.000750001
0.00179531
0.0027738
0.00631513
0.0155731
0.0264342
0.0155759
0.00632075
0.002782
0.00180378
0.00327266
0.00544443
0.0104815
0.0230554
0.0424167
0.0230581
0.0104873
0.00545315
0.00328167
0.00760054
0.00967892
0.0217293
0.0484158
0.0406833
0.048418
0.021735
0.00968806
0.00761039
0.0162505
0.0183701
0.0280314
-0.0310534
-0.16841
-0.0310516
0.0280366
0.0183796
0.0162612
0.0183287
0.0286433
0.0185757
-0.116009
-0.245645
-0.116008
0.0185804
0.0286529
0.0183401
0.0196063
0.0382812
0.0122756
-0.14874
-0.253855
-0.148739
0.0122801
0.0382909
0.019618
0.0241197
0.0480988
0.014218
-0.151604
-0.24263
-0.151603
0.0142225
0.0481084
0.0241316
0.03224
0.0591443
0.0225872
-0.14098
-0.225374
-0.140978
0.0225918
0.0591538
0.0322518
0.0434492
0.0720545
0.0351976
-0.124499
-0.205903
-0.124497
0.0352022
0.0720639
0.043461
0.0573237
0.0871367
0.0507508
-0.105317
-0.185406
-0.105315
0.0507554
0.0871459
0.0573352
0.0736167
0.104498
0.0685666
-0.084543
-0.164125
-0.084541
0.0685711
0.104507
0.073628
0.0921457
0.124118
0.0883011
-0.0624924
-0.141939
-0.0624904
0.0883056
0.124127
0.0921566
0.112692
0.145858
0.109715
-0.0390381
-0.118462
-0.0390361
0.109719
0.145866
0.112702
0.134939
0.169551
0.132903
-0.0132386
-0.0924019
-0.0132367
0.132907
0.169559
0.134949
0.158411
0.19455
0.157248
0.0161017
-0.0619882
0.0161034
0.157252
0.194558
0.15842
0.182632
0.221659
0.188214
0.0583196
-0.0160152
0.058321
0.188217
0.221666
0.182641
0.207183
0.245323
0.209831
0.105062
0.0389801
0.105062
0.209833
0.245329
0.207191
0.232587
0.280118
0.322212
0.286458
0.2542
0.286458
0.322213
0.280122
0.232594
0.261536
0.300542
0.361787
0.354132
0.331206
0.354131
0.361788
0.300545
0.261542
0.302961
0.31479
0.306602
0.232032
0.19229
0.232032
0.306603
0.314794
0.302968
0.417371
0.419434
0.360803
0.146676
-0.0151178
0.146677
0.360806
0.419438
0.417375
-3.29743e-07
-9.16923e-07
-1.19418e-07
-5.38224e-06
1.19079e-05
-5.16578e-06
-1.70207e-08
-7.74731e-07
-3.3824e-07
-4.23142e-07
-9.36538e-07
-1.70511e-07
-5.72985e-06
1.46268e-05
-5.50467e-06
-6.2193e-08
-7.22185e-07
-2.16368e-07
-1.28974e-06
-2.1534e-06
-1.28277e-06
-7.63277e-06
2.49162e-05
-7.32906e-06
-1.02171e-06
-1.69455e-06
-6.82213e-07
-2.70887e-06
-3.89806e-06
-2.7584e-06
-9.37239e-06
4.80554e-05
-8.92085e-06
-2.19997e-06
-2.95274e-06
-1.30562e-06
-4.53834e-06
-6.10993e-06
-4.39653e-06
-9.46788e-06
9.32528e-05
-8.8611e-06
-3.56137e-06
-4.71188e-06
-2.39761e-06
-6.42185e-06
-8.03434e-06
-4.78224e-06
-2.8946e-06
0.0001799
-2.10583e-06
-3.58112e-06
-5.99938e-06
-3.17478e-06
-7.94479e-06
-9.37516e-06
-2.47428e-06
1.96099e-05
0.000341247
2.05674e-05
-9.722e-07
-6.84629e-06
-3.90037e-06
-7.73002e-06
-7.64489e-06
8.33929e-06
8.02717e-05
0.000636321
8.14174e-05
1.02307e-05
-4.4397e-06
-2.5323e-06
-2.521e-06
1.60193e-06
3.88282e-05
0.00022263
0.00116341
0.000223944
4.10291e-05
5.29283e-06
3.39213e-06
1.66806e-05
3.22467e-05
0.000118435
0.000527318
0.00206667
0.000528818
0.000121038
3.66208e-05
2.36904e-05
7.09237e-05
0.000111921
0.000300143
0.00115737
0.00363009
0.00115902
0.000303055
0.000116758
7.85262e-05
0.000208848
0.000316038
0.000734993
0.00230494
0.00596083
0.00230674
0.000738302
0.000321542
0.000217447
0.000533504
0.000743996
0.00151669
0.00470414
0.0107087
0.00470603