/*--------------------------------*- C++ -*----------------------------------*\
  =========                 |
  \\      /  F ield         | OpenFOAM: The Open Source CFD Toolbox
   \\    /   O peration     | Website:  https://openfoam.org
    \\  /    A nd           | Version:  6
     \\/     M anipulation  |
\*---------------------------------------------------------------------------*/
FoamFile
{
    version     2.0;
    format      ascii;
    class       volScalarField;
    location    "0.9";
    object      alpha_air;
}
// * * * * * * * * * * * * * * * * * * * * * * * * * * * * * * * * * * * * * //

dimensions      [0 0 0 0 0 0 0];

internalField   nonuniform List<scalar> 
3029
(
1
1
1
1.00001
0.999991
1.00001
1
1
1
1
1
1
1.00001
0.999992
1.00001
1
1
1
1
1
1
1.00001
0.999984
1.00001
1
1
1
1
1.00001
1.00001
1.00002
0.999964
1.00002
1.00001
1.00001
1
1.00001
1.00001
1.00001
1.00002
0.999922
1.00002
1.00001
1.00001
1.00001
1.00001
1.00002
1.00002
1.00002
0.999838
1.00001
1.00001
1.00001
1.00001
1.00001
1.00002
1.00002
0.999999
0.99968
0.999994
1.00001
1.00001
1.00001
1.00002
1.00003
1.00001
0.999942
0.999387
0.999936
1
1.00001
1.00001
1.00001
1.00002
0.999984
0.999804
0.998865
0.999797
0.999973
1.00001
1.00001
0.999996
0.999993
0.999909
0.999497
0.997951
0.999489
0.999896
0.999977
0.999989
0.999944
0.999915
0.999726
0.998896
0.996458
0.998888
0.999712
0.999896
0.999935
0.999809
0.999725
0.999317
0.997614
0.993774
0.997606
0.999301
0.999704
0.999798
0.999485
0.999242
0.9984
0.995912
0.990906
0.995902
0.998383
0.999219
0.999472
0.998793
0.998467
0.996966
0.989464
0.978568
0.989454
0.996948
0.998442
0.998778
0.997478
0.995808
0.990759
0.994469
1.00416
0.99446
0.99074
0.995782
0.997461
0.994636
0.994939
1.00268
0.927754
0.691585
0.927748
1.00266
0.994911
0.994617
0.993065
0.993539
0.894928
0.525281
0.33138
0.525279
0.894914
0.993512
0.993044
0.992167
0.973088
0.733826
0.313884
0.242664
0.313884
0.733817
0.973062
0.992143
0.988273
0.946155
0.635794
0.241373
0.212828
0.241374
0.635788
0.94613
0.988248
0.980504
0.921288
0.58532
0.216874
0.198643
0.216876
0.585315
0.921264
0.980478
0.96931
0.899013
0.558162
0.207914
0.188228
0.207915
0.558158
0.89899
0.969284
0.955132
0.877613
0.540391
0.203744
0.178963
0.203746
0.540387
0.877591
0.955106
0.938172
0.855609
0.525577
0.200788
0.170308
0.200789
0.525573
0.855587
0.938145
0.918491
0.832117
0.511006
0.197854
0.162119
0.197855
0.511002
0.832097
0.918465
0.896132
0.806676
0.495507
0.19453
0.15435
0.194531
0.495503
0.806656
0.896106
0.871192
0.779056
0.478555
0.190684
0.147008
0.190685
0.478551
0.779037
0.871166
0.843867
0.749167
0.459919
0.186366
0.140169
0.186366
0.459915
0.749149
0.843842
0.814471
0.717094
0.43978
0.181983
0.134167
0.181983
0.439776
0.717077
0.814447
0.783431
0.683261
0.418846
0.178523
0.129833
0.178524
0.418842
0.683246
0.783408
0.751191
0.649074
0.400737
0.179259
0.129856
0.179259
0.400733
0.649061
0.751169
0.718513
0.61813
0.389347
0.190041
0.140899
0.190041
0.389343
0.618117
0.718492
0.685617
0.596176
0.385665
0.19155
0.138821
0.19155
0.385661
0.596165
0.685597
0.651011
0.589738
0.409514
0.194637
0.120886
0.194637
0.409509
0.589726
0.650991
0.556105
0.538986
0.443168
0.241735
0.115856
0.241733
0.443161
0.538973
0.556088
1
1
1.00001
1.00001
0.999926
1
1.00001
1
1
1
1.00001
1.00001
1.00001
0.999924
1.00001
1.00001
1
1
1
1.00001
1.00001
1.00001
0.99991
1.00001
1.00001
1.00001
1
1.00001
1.00001
1.00002
1.00001
0.999871
1.00001
1.00001
1.00001
1.00001
1.00001
1.00002
1.00002
1.00001
0.999779
1
1.00002
1.00001
1.00001
1.00002
1.00003
1.00002
0.99998
0.999585
0.999974
1.00001
1.00002
1.00001
1.00002
1.00003
1.00001
0.999901
0.999211
0.999894
1
1.00002
1.00001
1.00003
1.00003
0.999983
0.999713
0.998535
0.999705
0.999971
1.00001
1.00001
1.00002
1.00001
0.999901
0.999316
0.997384
0.999308
0.999886
0.999993
1
0.999993
0.999954
0.999707
0.998545
0.995507
0.998535
0.99969
0.999933
0.999974
0.999914
0.999805
0.999286
0.997151
0.99259
0.997141
0.999268
0.999782
0.999892
0.999724
0.999466
0.998439
0.994736
0.988104
0.994724
0.998419
0.99944
0.9997
0.999241
0.998722
0.996777
0.990866
0.982103
0.990855
0.996756
0.998694
0.999214
0.998465
0.997311
0.994066
0.984644
0.97119
0.984632
0.994044
0.99728
0.998437
0.995807
0.994526
0.987898
0.974838
0.969307
0.974827
0.987875
0.994495
0.995776
0.994937
0.989878
0.985105
0.974622
0.91729
0.974612
0.985082
0.989845
0.994905
0.993537
0.986308
0.962618
0.807319
0.574883
0.807313
0.962597
0.986275
0.993503
0.973085
0.979026
0.905162
0.609711
0.369561
0.609709
0.905144
0.978993
0.973052
0.946151
0.965545
0.851349
0.50404
0.297704
0.504039
0.851334
0.965512
0.946118
0.921284
0.947663
0.810735
0.454343
0.273431
0.454343
0.810721
0.947631
0.921252
0.89901
0.92691
0.778948
0.429242
0.264325
0.429242
0.778935
0.926879
0.898978
0.87761
0.903859
0.750988
0.413361
0.25955
0.413361
0.750976
0.903829
0.877579
0.855606
0.878626
0.723943
0.400308
0.255521
0.400308
0.723931
0.878597
0.855576
0.832115
0.851195
0.69641
0.387791
0.251277
0.387791
0.696399
0.851168
0.832086
0.806675
0.821537
0.667821
0.375075
0.246704
0.375075
0.667811
0.821512
0.806647
0.779055
0.789621
0.637953
0.362157
0.242104
0.362156
0.637943
0.789597
0.779028
0.749166
0.755338
0.606646
0.349525
0.238276
0.349525
0.606637
0.755316
0.749141
0.717093
0.718623
0.57422
0.338679
0.237154
0.338679
0.574212
0.718603
0.71707
0.683261
0.678569
0.539291
0.331095
0.241188
0.331095
0.539284
0.678551
0.68324
0.649075
0.637594
0.511617
0.337741
0.261386
0.337741
0.511611
0.637579
0.649056
0.618131
0.590443
0.453281
0.331482
0.278024
0.331482
0.453276
0.59043
0.618113
0.596177
0.562462
0.428895
0.323581
0.276959
0.323581
0.428891
0.56245
0.596161
0.589739
0.57118
0.43785
0.27474
0.214302
0.27474
0.437845
0.571168
0.589723
0.538986
0.545209
0.467465
0.263507
0.1356
0.263505
0.467457
0.545196
0.538972
1
1.00001
0.999991
1.00009
1.00022
1.00008
0.999988
1.00001
1
1
1.00001
0.999993
1.00009
1.00015
1.00008
0.999989
1.00001
1
1
1.00001
0.999995
1.00008
0.99995
1.00007
0.99999
1.00001
1
1.00001
1.00002
0.999996
1.00003
0.999544
1.00002
0.999989
1.00001
1
1.00001
1.00002
0.999992
0.999891
0.998812
0.999884
0.999984
1.00001
1.00001
1.00002
1.00002
0.999969
0.999578
0.997601
0.999571
0.999959
1.00001
1.00001
1.00002
1.00001
0.999895
0.998966
0.995718
0.998958
0.999884
0.999998
1.00001
1.00001
0.99998
0.999714
0.997875
0.992919
0.997866
0.999701
0.999964
0.999995
0.999981
0.999897
0.999325
0.996054
0.988906
0.996044
0.99931
0.999879
0.999965
0.999905
0.999703
0.998559
0.993169
0.983319
0.993159
0.998543
0.999682
0.999886
0.999722
0.999281
0.997158
0.988799
0.975747
0.988789
0.997141
0.999259
0.999701
0.999312
0.998434
0.994746
0.982451
0.965764
0.982441
0.994727
0.99841
0.999289
0.998395
0.996772
0.990797
0.973556
0.952972
0.973545
0.990777
0.996746
0.998369
0.996961
0.994061
0.984778
0.961994
0.937801
0.961983
0.984757
0.994033
0.996933
0.990753
0.987893
0.975869
0.946294
0.91798
0.946284
0.975848
0.987864
0.990724
1.00267
0.985099
0.964347
0.934346
0.917278
0.934336
0.964325
0.985069
1.00264
0.89492
0.962611
0.951765
0.912108
0.847014
0.912099
0.951744
0.962581
0.894893
0.733819
0.905155
0.934617
0.860329
0.728631
0.860321
0.934596
0.905126
0.733797
0.635789
0.851343
0.912629
0.809455
0.650917
0.809448
0.912608
0.851316
0.63577
0.585316
0.810729
0.887436
0.768317
0.606019
0.768312
0.887416
0.810703
0.585297
0.558159
0.778943
0.859911
0.733865
0.576952
0.73386
0.859892
0.778918
0.558141
0.540388
0.750984
0.830359
0.702304
0.553901
0.7023
0.830341
0.75096
0.540371
0.525574
0.723939
0.798892
0.671529
0.532537
0.671525
0.798875
0.723916
0.525557
0.511004
0.696408
0.765606
0.640444
0.511099
0.640441
0.76559
0.696386
0.510988
0.495506
0.66782
0.730572
0.60873
0.489083
0.608727
0.730558
0.667799
0.49549
0.478555
0.637952
0.693765
0.576361
0.466611
0.576359
0.693752
0.637933
0.47854
0.459919
0.606647
0.654865
0.543322
0.444088
0.54332
0.654853
0.606629
0.459905
0.439782
0.574221
0.613378
0.509614
0.422304
0.509612
0.613367
0.574205
0.439768
0.418848
0.539293
0.565693
0.473723
0.401244
0.473721
0.565684
0.539279
0.418835
0.400739
0.51162
0.516791
0.437872
0.384796
0.437871
0.516784
0.511607
0.400727
0.38935
0.453283
0.371016
0.332851
0.311285
0.332851
0.371015
0.453275
0.389339
0.385669
0.428897
0.42889
0.385658
0.409517
0.437853
0.446589
0.331424
0.245038
0.331423
0.446583
0.437844
0.409506
0.443171
0.467467
0.467386
0.319287
0.192943
0.319284
0.467378
0.467456
0.44316
0.468662
0.320709
0.182161
0.320706
0.468653
0.4615
0.318536
0.179163
0.318532
0.461491
0.451319
0.313252
0.176836
0.313248
0.45131
0.440104
0.306548
0.174291
0.306545
0.440095
0.428622
0.299326
0.171535
0.299323
0.428614
0.41714
0.291958
0.168658
0.291955
0.417132
0.405755
0.284587
0.16571
0.284584
0.405747
0.394486
0.277253
0.162708
0.277251
0.394479
0.383432
0.270033
0.15969
0.27003
0.383425
0.372194
0.262664
0.156532
0.262662
0.372187
0.362692
0.256422
0.153837
0.25642
0.362686
0.345942
0.245313
0.148781
0.245311
0.345936
1.00001
1.00001
1.00008
0.998752
0.991215
0.998746
1.00008
1
1.00001
1.00001
1.00001
1.00008
0.99853
0.990423
0.998524
1.00008
1
1.00001
1.00001
1.00001
1.00007
0.997996
0.988701
0.997989
1.00007
1
1.00001
1.00002
1.00001
1.00003
0.99703
0.985933
0.997023
1.00002
1
1.00001
1.00002
1
0.999887
0.995477
0.981995
0.99547
0.999878
0.999994
1.00001
1.00001
0.999974
0.999574
0.993135
0.976725
0.993127
0.999563
0.999963
1
0.999994
0.999894
0.998962
0.989752
0.969925
0.989744
0.99895
0.999881
0.999982
0.999935
0.999705
0.997869
0.985026
0.961352
0.985018
0.997856
0.99969
0.999922
0.999796
0.999307
0.996048
0.978606
0.950734
0.978598
0.996034
0.999291
0.999781
0.999488
0.998535
0.993163
0.970095
0.937773
0.970086
0.993148
0.998517
0.999471
0.998887
0.997141
0.988793
0.959077
0.922179
0.959068
0.988777
0.997121
0.998868
0.997604
0.994725
0.982445
0.945167
0.903731
0.945159
0.982428
0.994703
0.997583
0.995901
0.990855
0.973549
0.92811
0.882357
0.928102
0.973532
0.990832
0.995879
0.989453
0.984632
0.961987
0.908064
0.858555
0.908057
0.96197
0.984608
0.989429
0.994457
0.974827
0.946287
0.885781
0.832894
0.885774
0.94627
0.974802
0.994432
0.927743
0.97461
0.934339
0.862853
0.809566
0.862846
0.93432
0.974584
0.927718
0.525275
0.807309
0.912101
0.845828
0.794402
0.845821
0.912082
0.807287
0.525261
0.313881
0.609704
0.860321
0.830153
0.774015
0.830147
0.860303
0.609687
0.313872
0.241372
0.504035
0.809447
0.809467
0.747566
0.80946
0.809429
0.50402
0.241365
0.216874
0.454339
0.768311
0.783847
0.718757
0.783841
0.768293
0.454325
0.216867
0.207913
0.429238
0.733859
0.754836
0.689004
0.75483
0.733843
0.429225
0.207906
0.203744
0.413358
0.7023
0.723577
0.658582
0.723572
0.702284
0.413345
0.203737
0.200788
0.400306
0.671526
0.690717
0.62753
0.690713
0.671511
0.400294
0.200781
0.197854
0.38779
0.640442
0.656696
0.595919
0.656692
0.640428
0.387778
0.197847
0.19453
0.375075
0.608729
0.621706
0.563796
0.621703
0.608716
0.375064
0.194523
0.190684
0.362157
0.576361
0.585765
0.531155
0.585762
0.576349
0.362146
0.190678
0.186366
0.349527
0.543322
0.548603
0.497811
0.5486
0.543312
0.349517
0.18636
0.181984
0.338682
0.509615
0.509384
0.463161
0.509382
0.509606
0.338672
0.181978
0.178525
0.331098
0.473724
0.465574
0.425202
0.465572
0.473717
0.331089
0.178519
0.179261
0.337745
0.437873
0.41181
0.379555
0.41181
0.437868
0.337737
0.179255
0.190043
0.331485
0.332851
0.299514
0.282824
0.299515
0.332851
0.33148
0.190038
0.191553
0.323584
0.32358
0.191548
0.194641
0.274743
0.331427
0.336606
0.270439
0.336603
0.331423
0.274739
0.194635
0.241739
0.263511
0.31929
0.331269
0.256738
0.331266
0.319284
0.263504
0.241732
0.320712
0.323327
0.247182
0.323323
0.320706
0.318539
0.315261
0.240323
0.315257
0.318532
0.313255
0.307041
0.234262
0.307038
0.313248
0.306551
0.298767
0.228441
0.298763
0.306544
0.299328
0.290535
0.222712
0.290532
0.299322
0.29196
0.282399
0.217047
0.282396
0.291954
0.284589
0.274384
0.211445
0.274381
0.284583
0.277256
0.26649
0.2059
0.266487
0.27725
0.270035
0.258775
0.200454
0.258773
0.27003
0.262666
0.250973
0.194917
0.25097
0.262661
0.256424
0.244363
0.190204
0.24436
0.256419
0.245315
0.232812
0.181904
0.23281
0.24531
0.999989
0.999921
1.00021
0.991209
0.961283
0.991203
1.00021
0.999917
0.999989
0.999989
0.999918
1.00014
0.990417
0.959563
0.990411
1.00013
0.999913
0.999986
0.99998
0.999903
0.999942
0.988695
0.956074
0.988689
0.999935
0.999897
0.999976
0.999958
0.999862
0.999535
0.985927
0.950842
0.985921
0.999527
0.999855
0.999953
0.999915
0.999769
0.998802
0.981988
0.943926
0.981982
0.998794
0.999761
0.999908
0.99983
0.999574
0.997591
0.976719
0.935325
0.976712
0.997581
0.999564
0.999821
0.99967
0.999199
0.995707
0.969918
0.924969
0.969912
0.995696
0.999187
0.99966
0.999376
0.998522
0.992908
0.961346
0.912721
0.96134
0.992897
0.998509
0.999364
0.998853
0.99737
0.988894
0.950728
0.898401
0.950722
0.988883
0.997356
0.99884
0.997938
0.995492
0.983307
0.937767
0.881805
0.937762
0.983295
0.995477
0.997924
0.996444
0.992575
0.975735
0.922174
0.86274
0.922169
0.975722
0.992558
0.996428
0.99376
0.988088
0.965752
0.903726
0.841074
0.903721
0.965739
0.98807
0.993743
0.990891
0.982087
0.95296
0.882352
0.816823
0.882348
0.952947
0.982068
0.990872
0.978552
0.971174
0.937789
0.85855
0.790318
0.858546
0.937776
0.971155
0.978533
1.00415
0.969291
0.917969
0.83289
0.762482
0.832886
0.917955
0.969271
1.00413
0.691575
0.917275
0.917267
0.809562
0.734379
0.809558
0.917253
0.917254
0.691559
0.331377
0.574876
0.847003
0.794398
0.710319
0.794394
0.846988
0.574861
0.331368
0.242663
0.369557
0.728622
0.77401
0.690592
0.774005
0.728608
0.369547
0.242656
0.212827
0.297702
0.65091
0.747561
0.670473
0.747556
0.650896
0.297693
0.21282
0.198643
0.273429
0.606012
0.718753
0.648114
0.718748
0.605999
0.27342
0.198637
0.188227
0.264323
0.576946
0.689001
0.623649
0.688996
0.576933
0.264314
0.188221
0.178963
0.259549
0.553896
0.658578
0.597635
0.658574
0.553884
0.259541
0.178957
0.170307
0.25552
0.532533
0.627528
0.570474
0.627524
0.532522
0.255512
0.170301
0.162119
0.251276
0.511096
0.595916
0.54258
0.595913
0.511085
0.251268
0.162113
0.15435
0.246704
0.489081
0.563794
0.514122
0.563791
0.489071
0.246696
0.154345
0.147008
0.242103
0.466609
0.531154
0.485125
0.531151
0.466599
0.242096
0.147002
0.140169
0.238277
0.444086
0.497809
0.455437
0.497807
0.444078
0.238269
0.140164
0.134167
0.237154
0.422304
0.46316
0.424549
0.463159
0.422297
0.237147
0.134162
0.129834
0.241189
0.401244
0.425202
0.390763
0.425201
0.401239
0.241183
0.129829
0.129857
0.261388
0.384796
0.379554
0.350777
0.379554
0.384793
0.261382
0.129852
0.1409
0.278025
0.311285
0.282824
0.267758
0.282824
0.311285
0.278022
0.140896
0.138822
0.27696
0.276957
0.138818
0.120887
0.214303
0.24504
0.27044
0.257104
0.270438
0.245037
0.2143
0.120883
0.115857
0.135601
0.192945
0.25674
0.255713
0.256737
0.192941
0.135597
0.115853
0.182162
0.247183
0.250544
0.247181
0.182159
0.179164
0.240324
0.244175
0.240321
0.17916
0.176837
0.234263
0.237492
0.23426
0.176833
0.174292
0.228442
0.230803
0.22844
0.174289
0.171537
0.222713
0.224198
0.222711
0.171533
0.16866
0.217048
0.217707
0.217046
0.168656
0.165712
0.211446
0.211343
0.211444
0.165708
0.162709
0.205901
0.2051
0.205899
0.162706
0.159691
0.200455
0.199017
0.200453
0.159688
0.156533
0.194918
0.192897
0.194916
0.15653
0.153838
0.190205
0.187687
0.190203
0.153835
0.148782
0.181905
0.178722
0.181903
0.14878
1
1
1.00008
0.99874
0.9912
0.998737
1.00007
1
1.00001
1.00001
1
1.00008
0.998518
0.990408
0.998515
1.00007
1
1.00001
1.00001
1
1.00007
0.997982
0.988686
0.997979
1.00006
1
1.00001
1.00001
1
1.00002
0.997015
0.985917
0.997012
1.00001
0.999999
1.00001
1.00001
0.999994
0.999876
0.995462
0.981979
0.995459
0.999871
0.99999
1.00001
1.00001
0.999965
0.999561
0.993119
0.976709
0.993115
0.999556
0.999959
1
0.999986
0.999883
0.998948
0.989736
0.969909
0.989732
0.998941
0.999876
0.99998
0.999926
0.999692
0.997854
0.98501
0.961337
0.985006
0.997847
0.999684
0.999919
0.999785
0.999294
0.996032
0.97859
0.950719
0.978585
0.996025
0.999284
0.999777
0.999477
0.998521
0.993147
0.970079
0.937759
0.970074
0.993139
0.99851
0.999467
0.998874
0.997125
0.988776
0.959061
0.922166
0.959056
0.988768
0.997114
0.998864
0.997591
0.994708
0.982428
0.945151
0.903719
0.945147
0.982419
0.994696
0.997579
0.995887
0.990839
0.973533
0.928095
0.882346
0.928091
0.973523
0.990825
0.995874
0.989439
0.984616
0.961971
0.908051
0.858545
0.908047
0.961961
0.984601
0.989424
0.994444
0.974811
0.946272
0.885769
0.832885
0.885765
0.946262
0.974795
0.994428
0.927733
0.974596
0.934324
0.862841
0.809557
0.862838
0.934313
0.974579
0.927716
0.525272
0.8073
0.912088
0.845816
0.794393
0.845813
0.912076
0.807284
0.52526
0.313881
0.6097
0.86031
0.830142
0.774005
0.830139
0.860298
0.609686
0.313873
0.241373
0.504032
0.809438
0.809455
0.747556
0.809452
0.809426
0.50402
0.241366
0.216875
0.454337
0.768303
0.783837
0.718748
0.783834
0.76829
0.454325
0.216868
0.207914
0.429237
0.733852
0.754826
0.688996
0.754823
0.73384
0.429225
0.207907
0.203745
0.413356
0.702293
0.723569
0.658574
0.723566
0.702281
0.413345
0.203738
0.200788
0.400304
0.671519
0.69071
0.627524
0.690707
0.671508
0.400293
0.200781
0.197854
0.387787
0.640435
0.65669
0.595913
0.656688
0.640425
0.387777
0.197847
0.194529
0.375072
0.608723
0.621701
0.563791
0.621699
0.608713
0.375062
0.194523
0.190684
0.362154
0.576355
0.58576
0.531151
0.585759
0.576347
0.362144
0.190677
0.186365
0.349523
0.543317
0.548599
0.497808
0.548598
0.543309
0.349514
0.186359
0.181982
0.338678
0.50961
0.509381
0.463159
0.509381
0.509603
0.33867
0.181977
0.178523
0.331094
0.47372
0.465571
0.425201
0.465571
0.473715
0.331086
0.178517
0.179258
0.33774
0.43787
0.411809
0.379554
0.411809
0.437866
0.337734
0.179253
0.19004
0.331482
0.332851
0.299514
0.282824
0.299515
0.332851
0.331478
0.190035
0.19155
0.323581
0.323579
0.191545
0.194636
0.274739
0.331423
0.336604
0.27044
0.336603
0.331421
0.274736
0.194631
0.241733
0.263505
0.319285
0.331267
0.256739
0.331265
0.319281
0.2635
0.241728
0.320707
0.323324
0.247183
0.323323
0.320703
0.318533
0.315258
0.240323
0.315256
0.318529
0.313249
0.307039
0.234262
0.307037
0.313245
0.306546
0.298764
0.228441
0.298762
0.306542
0.299323
0.290533
0.222712
0.290531
0.29932
0.291956
0.282396
0.217047
0.282395
0.291952
0.284585
0.274382
0.211445
0.27438
0.284581
0.277251
0.266488
0.2059
0.266486
0.277248
0.270031
0.258773
0.200454
0.258772
0.270028
0.262663
0.250971
0.194917
0.250969
0.262659
0.25642
0.244361
0.190204
0.24436
0.256417
0.245312
0.232811
0.181904
0.232809
0.245308
1
1
0.999985
1.00008
1.00021
1.00007
0.999984
1
1
1
1.00001
0.999986
1.00007
1.00013
1.00007
0.999984
1
1
1
1.00001
0.999986
1.00006
0.999932
1.00006
0.999984
1.00001
1
1
1.00001
0.999985
1.00001
0.999524
1.00001
0.999983
1.00001
1
1.00001
1.00001
0.999978
0.999873
0.998791
0.999871
0.999976
1.00001
1
1.00001
1.00001
0.999952
0.999558
0.997578
0.999555
0.999949
1
1
1
0.999995
0.999876
0.998944
0.995693
0.998941
0.999872
0.999991
1
0.999994
0.999961
0.999692
0.99785
0.992893
0.997847
0.999688
0.999956
0.99999
0.999964
0.999876
0.999301
0.996027
0.98888
0.996024
0.999296
0.999869
0.999959
0.999886
0.999679
0.998533
0.993142
0.983292
0.993138
0.998528
0.999672
0.999879
0.999701
0.999256
0.997131
0.98877
0.975719
0.988767
0.997124
0.999247
0.999694
0.999289
0.998407
0.994716
0.982422
0.965736
0.982418
0.99471
0.998398
0.999281
0.998371
0.996743
0.990766
0.973526
0.952945
0.973522
0.990759
0.996733
0.998361
0.996935
0.99403
0.984747
0.961964
0.937774
0.96196
0.984739
0.99402
0.996925
0.990727
0.987862
0.975838
0.946265
0.917953
0.946261
0.97583
0.987851
0.990716
1.00265
0.985069
0.964316
0.934316
0.917251
0.934313
0.964308
0.985057
1.00263
0.894901
0.962584
0.951735
0.912078
0.846988
0.912076
0.951727
0.962571
0.894888
0.733807
0.905132
0.934587
0.8603
0.728608
0.860298
0.934579
0.905118
0.733794
0.63578
0.851323
0.9126
0.809427
0.650896
0.809426
0.912593
0.851309
0.635768
0.585308
0.810711
0.887409
0.768292
0.606
0.768291
0.887402
0.810698
0.585296
0.558151
0.778926
0.859886
0.733842
0.576935
0.733841
0.859879
0.778913
0.55814
0.540381
0.750968
0.830335
0.702283
0.553885
0.702283
0.830328
0.750955
0.54037
0.525566
0.723924
0.79887
0.67151
0.532524
0.67151
0.798864
0.723911
0.525555
0.510996
0.696393
0.765586
0.640427
0.511087
0.640428
0.76558
0.696381
0.510985
0.495498
0.667806
0.730555
0.608716
0.489073
0.608716
0.730549
0.667794
0.495488
0.478547
0.637939
0.693749
0.576349
0.466602
0.576349
0.693744
0.637928
0.478537
0.459911
0.606634
0.654851
0.543312
0.444081
0.543312
0.654846
0.606625
0.459901
0.439773
0.57421
0.613366
0.509606
0.422299
0.509607
0.613362
0.574201
0.439764
0.418839
0.539283
0.565684
0.473717
0.401241
0.473718
0.56568
0.539275
0.418831
0.40073
0.511611
0.516784
0.437868
0.384795
0.437869
0.516782
0.511604
0.400723
0.389341
0.453276
0.371014
0.332851
0.311285
0.332851
0.371015
0.453272
0.389334
0.38566
0.428891
0.428889
0.385654
0.409508
0.437846
0.446584
0.331423
0.245039
0.331424
0.446582
0.437842
0.409502
0.443163
0.46746
0.46738
0.319285
0.192943
0.319284
0.467377
0.467454
0.443157
0.468655
0.320707
0.182161
0.320706
0.468652
0.461494
0.318533
0.179162
0.318532
0.46149
0.451313
0.313249
0.176835
0.313248
0.451309
0.440098
0.306545
0.174291
0.306545
0.440094
0.428617
0.299323
0.171535
0.299323
0.428613
0.417135
0.291955
0.168658
0.291955
0.417131
0.40575
0.284584
0.16571
0.284584
0.405746
0.394481
0.277251
0.162708
0.27725
0.394478
0.383427
0.270031
0.15969
0.27003
0.383424
0.372189
0.262662
0.156531
0.262662
0.372186
0.362688
0.25642
0.153837
0.256419
0.362685
0.345938
0.245311
0.148781
0.245311
0.345935
1
1
1
1
0.999916
1
1
1
1
1
1
1.00001
1
0.999912
1
1
1
1
1
1
1.00001
1
0.999895
1
1.00001
1
1
1
1.00001
1.00001
0.999999
0.999853
0.999999
1.00001
1
1
1.00001
1.00001
1.00001
0.999991
0.999759
0.999989
1.00001
1.00001
1
1.00001
1.00001
1.00001
0.99996
0.999562
0.999958
1
1.00001
1.00001
1.00001
1.00001
0.999993
0.999877
0.999185
0.999876
0.999991
1.00001
1.00001
1.00001
1.00001
0.999959
0.999686
0.998507
0.999684
0.999956
1
1
0.999999
0.999985
0.999873
0.999286
0.997353
0.999284
0.999869
0.99998
0.999995
0.999969
0.999924
0.999676
0.998512
0.995475
0.99851
0.999672
0.999918
0.999964
0.999887
0.999773
0.999252
0.997116
0.992556
0.997113
0.999247
0.999766
0.999881
0.999695
0.99943
0.998403
0.994698
0.988068
0.994695
0.998398
0.999423
0.999688
0.99921
0.998684
0.996738
0.990828
0.982066
0.990825
0.996733
0.998677
0.999202
0.998432
0.997271
0.994025
0.984604
0.971153
0.984601
0.99402
0.997263
0.998424
0.995772
0.994485
0.987857
0.974798
0.969269
0.974795
0.987851
0.994476
0.995763
0.994901
0.989836
0.985062
0.974581
0.917254
0.974579
0.985057
0.989827
0.994891
0.993502
0.986266
0.962576
0.807286
0.574863
0.807285
0.962571
0.986256
0.993491
0.973052
0.978985
0.905123
0.609688
0.369549
0.609688
0.905119
0.978975
0.97304
0.94612
0.965504
0.851313
0.504021
0.297695
0.504022
0.85131
0.965495
0.946108
0.921255
0.947624
0.810701
0.454327
0.273423
0.454328
0.810699
0.947615
0.921243
0.898982
0.926873
0.778916
0.429227
0.264317
0.429228
0.778914
0.926863
0.89897
0.877583
0.903824
0.750958
0.413346
0.259543
0.413348
0.750957
0.903814
0.877571
0.85558
0.878593
0.723915
0.400295
0.255514
0.400296
0.723914
0.878584
0.855568
0.832091
0.851164
0.696385
0.387779
0.25127
0.38778
0.696384
0.851156
0.832079
0.806651
0.821509
0.667799
0.375065
0.246699
0.375066
0.667797
0.821501
0.80664
0.779033
0.789596
0.637933
0.362148
0.242098
0.362149
0.637932
0.789588
0.779022
0.749146
0.755316
0.606629
0.349518
0.238272
0.349519
0.606628
0.755309
0.749136
0.717075
0.718603
0.574206
0.338674
0.23715
0.338675
0.574204
0.718597
0.717066
0.683245
0.678553
0.539279
0.331091
0.241186
0.331091
0.539278
0.678547
0.683236
0.649061
0.637581
0.511608
0.337738
0.261385
0.337739
0.511608
0.637576
0.649053
0.618118
0.590432
0.453275
0.331481
0.278024
0.331482
0.453275
0.590428
0.618111
0.596166
0.562453
0.428891
0.323581
0.27696
0.323582
0.428891
0.562449
0.596159
0.589729
0.571171
0.437845
0.274739
0.214302
0.27474
0.437845
0.571167
0.589722
0.538977
0.545201
0.467459
0.263504
0.135599
0.263504
0.467457
0.545197
0.538973
1
1
1
1.00001
0.999988
1.00001
1
1
1
1
1
1
1.00001
0.999985
1.00001
1
1
1
1
1
1
1.00001
0.999975
1.00001
1
1
1
1
1
1
1.00001
0.999952
1.00001
1
1
1
1
1.00001
1
1.00001
0.999907
1.00001
1
1
1
1.00001
1.00001
1
1
0.99982
1
1
1.00001
1
1.00001
1.00001
1
0.99998
0.999659
0.999979
1
1.00001
1
1.00001
1.00001
0.999992
0.99992
0.999363
0.999918
0.99999
1
1
1
0.999998
0.999961
0.999778
0.998839
0.999777
0.999959
0.999995
0.999997
0.999983
0.999968
0.999882
0.999468
0.997923
0.999467
0.999879
0.999964
0.999976
0.999929
0.999886
0.999697
0.998865
0.996426
0.998863
0.999694
0.999881
0.999921
0.999792
0.999694
0.999284
0.997581
0.993741
0.997579
0.999281
0.999688
0.999783
0.999466
0.999208
0.998365
0.995876
0.990871
0.995874
0.998361
0.999202
0.999457
0.998771
0.998431
0.996929
0.989426
0.978532
0.989424
0.996925
0.998424
0.998761
0.997454
0.99577
0.99072
0.99443
1.00412
0.994428
0.990716
0.995764
0.997444
0.99461
0.994899
1.00264
0.927717
0.69156
0.927716
1.00263
0.994892
0.9946
0.993037
0.993498
0.894891
0.525262
0.331371
0.525262
0.894889
0.993491
0.993026
0.992137
0.973047
0.733797
0.313875
0.242659
0.313875
0.733796
0.973041
0.992126
0.988242
0.946115
0.63577
0.241368
0.212823
0.241368
0.63577
0.946109
0.988231
0.980472
0.921249
0.585298
0.216869
0.198639
0.21687
0.585298
0.921243
0.980461
0.969278
0.898976
0.558141
0.207909
0.188224
0.20791
0.558142
0.89897
0.969267
0.955101
0.877577
0.540371
0.203739
0.178959
0.20374
0.540372
0.877572
0.95509
0.938141
0.855574
0.525557
0.200783
0.170304
0.200784
0.525558
0.855569
0.938131
0.918461
0.832085
0.510988
0.197849
0.162115
0.19785
0.510989
0.83208
0.918451
0.896104
0.806646
0.49549
0.194525
0.154347
0.194526
0.495491
0.806641
0.896094
0.871165
0.779028
0.47854
0.190679
0.147004
0.19068
0.478541
0.779024
0.871155
0.843841
0.749142
0.459905
0.186361
0.140166
0.186362
0.459905
0.749138
0.843833
0.814447
0.717072
0.439768
0.181979
0.134164
0.18198
0.439768
0.717068
0.814439
0.783409
0.683241
0.418835
0.17852
0.129831
0.178521
0.418835
0.683238
0.783402
0.75117
0.649058
0.400727
0.179256
0.129854
0.179256
0.400727
0.649055
0.751163
0.718494
0.618115
0.389339
0.190038
0.140898
0.190039
0.389339
0.618113
0.718488
0.6856
0.596163
0.385658
0.191548
0.13882
0.191549
0.385658
0.596161
0.685594
0.650994
0.589726
0.409506
0.194635
0.120885
0.194635
0.409506
0.589724
0.650989
0.556092
0.538976
0.443162
0.241732
0.115855
0.241732
0.44316
0.538974
0.556091
)
;

boundaryField
{
    injectionXMinus
    {
        type            zeroGradient;
    }
    injectionXPlus
    {
        type            zeroGradient;
    }
    injectionYMinus
    {
        type            zeroGradient;
    }
    injectionYPlus
    {
        type            zeroGradient;
    }
    inletXMinus
    {
        type            fixedValue;
        value           uniform 1;
    }
    inletXPlus
    {
        type            fixedValue;
        value           uniform 1;
    }
    inletYMinus
    {
        type            fixedValue;
        value           uniform 1;
    }
    inletYPlus
    {
        type            fixedValue;
        value           uniform 1;
    }
    outlet
    {
        type            zeroGradient;
    }
    valve
    {
        type            zeroGradient;
    }
    walls
    {
        type            zeroGradient;
    }
}


// ************************************************************************* //
