/*--------------------------------*- C++ -*----------------------------------*\
  =========                 |
  \\      /  F ield         | OpenFOAM: The Open Source CFD Toolbox
   \\    /   O peration     | Website:  https://openfoam.org
    \\  /    A nd           | Version:  6
     \\/     M anipulation  |
\*---------------------------------------------------------------------------*/
FoamFile
{
    version     2.0;
    format      ascii;
    class       surfaceScalarField;
    location    "0.9";
    object      phi;
}
// * * * * * * * * * * * * * * * * * * * * * * * * * * * * * * * * * * * * * //

dimensions      [0 3 -1 0 0 0 0];

internalField   nonuniform List<scalar> 
8239
(
0.0351486
0.0297028
0.0351486
0.0287759
0.0240486
0.0323239
0.0334917
0.018885
0.026399
0.00944132
0.0136227
0.0104276
-0.00944148
0.0119617
0.00692098
-0.0334919
0.0136226
0.0104276
-0.028776
0.018885
0.026399
-0.0351486
0.0240486
0.0323239
0.0297027
0.0351486
0.0294945
0.0707136
0.0294945
0.0236123
0.0527096
0.027221
0.0282293
0.0418673
0.0224006
0.00778039
0.0254213
0.00865007
-0.00778056
0.0217448
0.00577768
-0.0282295
0.0254213
0.00865007
-0.0236124
0.0418672
0.0224006
-0.0294945
0.0527096
0.027221
0.0707136
0.0294945
0.0114905
0.0477326
0.0114905
0.01277
0.041115
0.0103149
0.0117834
0.0346712
0.00818247
0.00410386
0.0283278
0.00477288
-0.00410403
0.026259
0.0036935
-0.0117836
0.0283278
0.00477288
-0.0127701
0.0346712
0.00818247
-0.0114905
0.041115
0.0103149
0.0477326
0.0114904
0.00487287
0.0379868
0.00487284
0.00632619
0.0353034
0.00435802
0.00544009
0.0320505
0.00350656
0.00203504
0.0292261
0.00250663
-0.00203522
0.0281943
0.00213484
-0.00544024
0.0292261
0.00250663
-0.0063263
0.0320505
0.00350656
-0.0048729
0.0353034
0.00435801
0.0379867
0.00487282
0.00218954
0.0336076
0.0021895
0.00307329
0.0324404
0.00197909
0.00261565
0.030861
0.001647
0.00100322
0.0295243
0.00131404
-0.0010034
0.0290171
0.00118357
-0.00261581
0.0295243
0.00131404
-0.00307341
0.030861
0.001647
-0.00218957
0.0324404
0.00197909
0.0336076
0.00218949
0.0010223
0.0315629
0.00102227
0.00149392
0.0310297
0.000938823
0.00127896
0.0302658
0.000809923
0.000496081
0.0296169
0.000690117
-0.000496263
0.0293667
0.000642632
-0.00127912
0.0296169
0.000690117
-0.00149403
0.0302658
0.000809923
-0.00102234
0.0310297
0.000938821
0.0315629
0.00102226
0.000489121
0.0305846
0.000489094
0.000730042
0.0303319
0.000456654
0.00063
0.0299587
0.000406994
0.000245903
0.0296384
0.00036239
-0.000246086
0.0295138
0.000344719
-0.000630162
0.0296384
0.000362391
-0.00073016
0.0299587
0.000406995
-0.000489159
0.0303319
0.000456653
0.0305846
0.000489078
0.000236496
0.0301115
0.00023647
0.000356814
0.0299868
0.000224644
0.000309712
0.029799
0.000206611
0.000121298
0.029636
0.000190656
-0.000121481
0.0295721
0.000184352
-0.000309873
0.029636
0.000190657
-0.00035693
0.029799
0.000206612
-0.000236534
0.0299868
0.000224642
0.0301115
0.000236455
0.000111795
0.0298878
0.000111772
0.000169061
0.02982
0.000109358
0.000146702
0.0297155
0.00010573
5.7373e-05
0.0296226
0.000102587
-5.75535e-05
0.0295855
0.00010137
-0.000146861
0.0296226
0.000102588
-0.000169177
0.0297155
0.000105732
-0.000111834
0.02982
0.000109358
0.0298878
0.000111759
4.39624e-05
0.0297998
4.39423e-05
6.4586e-05
0.0297506
4.85814e-05
5.38149e-05
0.0296703
5.5826e-05
2.02738e-05
0.0295936
6.24353e-05
-2.04509e-05
0.029561
6.51659e-05
-5.39702e-05
0.0295936
6.2436e-05
-6.46987e-05
0.0296703
5.58269e-05
-4.4001e-05
0.0297506
4.85804e-05
0.0297998
4.39292e-05
-5.23835e-06
0.0298102
-5.25564e-06
-1.57196e-05
0.0297504
1.05369e-05
-2.29016e-05
0.0296421
3.52353e-05
-1.23614e-05
0.0295249
5.80554e-05
1.21884e-05
0.0294686
6.77092e-05
2.27498e-05
0.0295249
5.80562e-05
1.56088e-05
0.0296421
3.52369e-05
5.19892e-06
0.0297504
1.05375e-05
0.0298102
-5.26595e-06
-6.5053e-05
0.0299403
-6.50673e-05
-0.000124001
0.0298335
-2.43125e-05
-0.000140151
0.029618
4.01922e-05
-6.8649e-05
0.0293512
0.0001021
6.84816e-05
0.0292012
0.000130116
0.000140005
0.0293512
0.000102101
0.000123895
0.029618
4.01931e-05
6.50148e-05
0.0298335
-2.4313e-05
0.0299403
-6.50777e-05
-0.000171783
0.0302838
-0.000171794
-0.000339569
0.0300732
-7.20399e-05
-0.000406951
0.0295959
8.93299e-05
-0.00021857
0.0289071
0.000255599
0.000218409
0.0284223
0.000341825
0.00040681
0.0289071
0.0002556
0.000339466
0.0295959
8.93317e-05
0.000171744
0.0300732
-7.20388e-05
0.0302838
-0.000171802
-0.000382316
0.0310483
-0.000382325
-0.00081689
0.030655
-0.000147263
-0.00109577
0.0296275
0.000247154
-0.000703305
0.0278077
0.000706792
0.000703152
0.0260044
0.00101142
0.00109564
0.0278077
0.000706793
0.000816793
0.0296276
0.000247155
0.00038228
0.030655
-0.000147264
0.0310484
-0.000382332
-0.000775696
0.0325997
-0.000775701
-0.00184431
0.0319774
-0.000253904
-0.00291558
0.0300238
0.0006749
-0.00250665
0.0254031
0.00199563
0.0025065
0.0177074
0.0032838
0.00291546
0.0254031
0.00199563
0.00184421
0.0300238
0.000674902
0.000775659
0.0319774
-0.000253902
0.0325997
-0.000775705
-0.001398
0.0353956
-0.001398
-0.00379784
0.034737
-0.000359864
-0.00753632
0.0321004
0.00166186
-0.0102024
0.0225494
0.00551968
0.0102022
-0.0147069
0.0120096
0.00753621
0.0225494
0.00551968
0.00379776
0.0321004
0.00166186
0.00139796
0.034737
-0.000359864
0.0353956
-0.001398
-0.00205661
0.0395088
-0.00205661
-0.00643446
0.0395078
-0.00039304
-0.0170873
0.0395063
0.00324683
-0.0474586
0.039505
0.0134156
0.0474585
0.0395045
0.0508714
0.0170872
0.039505
0.0134156
0.00643438
0.0395064
0.00324683
0.00205658
0.0395078
-0.000393037
0.0395088
-0.00205661
-0.00205758
0.0436239
-0.00205757
-0.00643594
0.0442801
-0.000394015
-0.0170886
0.0469131
0.00324583
-0.0474592
0.056461
0.0134146
0.047459
0.093716
0.0508703
0.0170885
0.056461
0.0134146
0.00643587
0.0469132
0.00324583
0.00205755
0.0442802
-0.000394014
0.0436239
-0.00205757
-0.00140133
0.0464265
-0.00140132
-0.00380294
0.0470449
-0.000363242
-0.0075408
0.0489926
0.0016584
-0.0102041
0.0536081
0.00551615
0.010204
0.0613018
0.012006
0.00754071
0.0536081
0.00551615
0.00380287
0.0489926
0.0016584
0.0014013
0.047045
-0.000363239
0.0464265
-0.00140132
-0.000782904
0.0479923
-0.000782892
-0.00185532
0.0483786
-0.000261238
-0.00292525
0.0493951
0.00066734
-0.00251045
0.0512054
0.00198787
0.00251036
0.053005
0.00327596
0.00292518
0.0512054
0.00198787
0.00185527
0.0493952
0.000667341
0.000782878
0.0483786
-0.000261237
0.0479923
-0.00078289
-0.000396618
0.0487855
-0.000396603
-0.000838758
0.0489826
-0.000161916
-0.00111498
0.0494394
0.00023192
-0.00071086
0.0501102
0.000691046
0.000710788
0.0505879
0.000995475
0.00111492
0.0501103
0.000691047
0.000838712
0.0494395
0.000231922
0.000396594
0.0489827
-0.000161913
0.0487855
-0.000396597
-0.000199492
0.0491845
-0.000199472
-0.000381947
0.0492658
-0.000100681
-0.000444165
0.0494425
5.92026e-05
-0.000233223
0.0496752
0.000224168
0.000233166
0.0498116
0.000309881
0.000444117
0.0496752
0.000224169
0.000381913
0.0494425
5.92039e-05
0.000199472
0.0492658
-0.000100679
0.0491845
-0.000199467
-0.000118178
0.0494208
-0.000118155
-0.000205259
0.0494327
-7.98667e-05
-0.000211472
0.0494679
-1.91501e-05
-9.67412e-05
0.049521
3.9444e-05
9.67005e-05
0.0495521
6.61576e-05
0.000211438
0.049521
3.94451e-05
0.000205234
0.0494679
-1.91477e-05
0.00011816
0.0494328
-7.98624e-05
0.0494208
-0.000118146
-0.000106229
0.0496333
-0.000106202
-0.000170154
0.0495934
-9.67041e-05
-0.000158315
0.0495377
-8.1667e-05
-6.56794e-05
0.0494957
-6.72631e-05
6.56554e-05
0.0494817
-6.09039e-05
0.000158296
0.0494957
-6.72623e-05
0.00017014
0.0495378
-8.16656e-05
0.000106216
0.0495935
-9.67012e-05
0.0496333
-0.000106193
-0.000146054
0.0499254
-0.000146023
-0.000225852
0.0498307
-0.000157414
-0.000200357
0.0496871
-0.00017482
-7.96724e-05
0.0495646
-0.000189536
7.9665e-05
0.0495175
-0.000195099
0.000200352
0.0495646
-0.000189535
0.000225849
0.0496871
-0.000174818
0.000146042
0.0498307
-0.000157409
0.0499254
-0.00014601
-0.000240704
0.0504068
-0.00024067
-0.000369441
0.0502432
-0.000283716
-0.00032287
0.0499909
-0.000350305
-0.000126752
0.0497758
-0.000407225
0.000126763
0.0496932
-0.000429121
0.000322881
0.0497758
-0.000407225
0.00036945
0.049991
-0.000350303
0.000240698
0.0502433
-0.000283713
0.0504068
-0.000240658
-0.00040423
0.0512152
-0.000404192
-0.000621758
0.0509788
-0.000517927
-0.000538007
0.0506041
-0.000696791
-0.000209332
0.0502941
-0.00084694
0.00020936
0.0501784
-0.00090384
0.000538032
0.0502942
-0.000846939
0.000621776
0.0506041
-0.000696788
0.000404225
0.0509788
-0.000517922
0.0512153
-0.000404176
-0.000640667
0.0524966
-0.000640627
-0.000996498
0.052257
-0.000922289
-0.000847916
0.0518372
-0.00138157
-0.000325028
0.0515246
-0.00175321
0.000325074
0.0514186
-0.00189013
0.000847957
0.0515246
-0.0017532
0.000996528
0.0518372
-0.00138157
0.000640665
0.0522571
-0.000922284
0.0524966
-0.00064061
-0.000880214
0.054257
-0.000880172
-0.00141638
0.0543312
-0.00153788
-0.00116049
0.0542764
-0.002695
-0.000431009
0.0543645
-0.00356927
0.000431072
0.0544336
-0.00387698
0.00116055
0.0543645
-0.00356927
0.00141642
0.0542764
-0.00269499
0.00088021
0.0543313
-0.00153788
0.0542571
-0.00088015
-0.000806017
0.0558691
-0.000805973
-0.00147123
0.057153
-0.00215638
-0.0010724
0.0588075
-0.00492979
-0.000361877
0.06043
-0.00677588
0.000361956
0.0610912
-0.00738125
0.00107247
0.06043
-0.00677588
0.00147127
0.0588075
-0.00492978
0.000806012
0.057153
-0.00215637
0.0558691
-0.000805948
0.000477875
0.0549134
0.00047792
0.000183282
0.0588679
-0.00142006
0.000550104
0.0652864
-0.00684555
0.000299299
0.0703578
-0.00967677
-0.000299207
0.0722012
-0.0105113
-0.000550025
0.0703578
-0.00967677
-0.000183231
0.0652864
-0.00684554
-0.000477886
0.0588679
-0.00142005
0.0549134
0.000477953
0.00443233
0.0460488
0.00443238
0.00660184
0.0514528
0.00524583
0.00562145
0.0606132
0.00565389
0.00214274
0.0672931
0.00654359
-0.00214264
0.0696186
0.00686815
-0.00562136
0.0672931
0.0065436
-0.00660179
0.0606132
0.0056539
-0.00443234
0.0514528
0.00524585
0.0460488
0.00443241
0.00983629
0.0263764
0.00983633
0.0157622
0.0297283
0.0157988
0.0123014
0.0350947
0.0289795
0.00446828
0.0387101
0.0364163
-0.00446818
0.0399222
0.0386331
-0.0123013
0.0387101
0.0364163
-0.0157622
0.0350947
0.0289795
-0.0098363
0.0297283
0.0157988
0.0263764
0.00983636
0.0131882
0.0131883
0.0211286
0.0217882
0.0159168
0.0403067
0.0056804
0.0489466
-0.0056803
0.051283
-0.0159167
0.0489466
-0.0211285
0.0403067
-0.0131882
0.0217882
0.0131883
0.032324
0.0240486
0.0287759
0.022851
0.0189457
0.022851
0.0175203
0.0148866
0.0168429
0.00593466
0.0118451
0.0101681
-0.00593483
0.0108184
0.00797188
-0.0175205
0.0118451
0.0101681
-0.0228511
0.0148866
0.0168429
-0.032324
0.0189457
0.022851
0.0240486
0.0287759
0.027221
0.0527096
0.0236123
0.018792
0.0358035
0.0187919
0.0144788
0.0276491
0.013951
0.004908
0.0215441
0.00852156
-0.00490817
0.0196606
0.00675142
-0.0144789
0.0215441
0.00852157
-0.0187921
0.0276491
0.013951
-0.0272211
0.0358035
0.0187919
0.0527096
0.0236123
0.0103149
0.041115
0.0127699
0.0106376
0.0351581
0.0106375
0.00837382
0.0299952
0.00809985
0.00302448
0.0260616
0.00560455
-0.00302465
0.0247004
0.00470267
-0.00837397
0.0260616
0.00560456
-0.0106377
0.0299952
0.00809987
-0.010315
0.0351581
0.0106375
0.0411149
0.0127699
0.00435805
0.0353034
0.00632613
0.00547473
0.0329245
0.00547467
0.00444016
0.030191
0.00434518
0.00166325
0.0280335
0.0033114
-0.00166343
0.027243
0.00291869
-0.00444032
0.0280335
0.00331141
-0.00547484
0.030191
0.00434519
-0.0043581
0.0329245
0.00547469
0.0353034
0.00632615
0.00197912
0.0324404
0.00307324
0.0027412
0.0314001
0.00274114
0.00228269
0.0300239
0.00227232
0.000872751
0.0289004
0.0018569
-0.000872931
0.0284762
0.00169583
-0.00228285
0.0289004
0.00185691
-0.00274132
0.0300239
0.00227234
-0.00197917
0.0314001
0.00274116
0.0324404
0.00307326
0.000938853
0.0310297
0.00149386
0.00136502
0.0305475
0.00136496
0.00115915
0.0298629
0.00117656
0.000448595
0.0292892
0.00101168
-0.000448778
0.0290688
0.000947232
-0.00115931
0.0292892
0.00101169
-0.00136514
0.0298629
0.00117658
-0.000938904
0.0305475
0.00136498
0.0310297
0.00149388
0.000456681
0.0303319
0.000729991
0.000680382
0.0300999
0.000680329
0.000585396
0.0297583
0.000606346
0.000228231
0.0294667
0.000541817
-0.000228414
0.0293535
0.000516513
-0.000585557
0.0294667
0.000541827
-0.000680502
0.0297583
0.000606364
-0.000456734
0.0300999
0.000680353
0.0303319
0.000730013
0.000224669
0.0299868
0.000356767
0.000338781
0.0298715
0.000338732
0.000293757
0.0296982
0.000311606
0.000114994
0.029548
0.000287962
-0.000115176
0.0294891
0.000278684
-0.000293917
0.029548
0.000287972
-0.0003389
0.0296982
0.000311624
-0.000224721
0.0298715
0.000338756
0.0299868
0.000356789
0.000109381
0.02982
0.000169019
0.000165433
0.0297592
0.000165389
0.000143559
0.0296656
0.000159962
5.61558e-05
0.0295825
0.000155298
-5.63354e-05
0.0295493
0.000153497
-0.000143717
0.0295825
0.000155308
-0.00016555
0.0296656
0.00015998
-0.000109433
0.0297592
0.000165413
0.02982
0.000169042
4.86015e-05
0.0297506
6.45487e-05
7.18306e-05
0.0297126
7.17919e-05
6.04243e-05
0.0296497
8.29426e-05
2.30043e-05
0.0295892
9.29497e-05
-2.31808e-05
0.0295635
9.7021e-05
-6.05794e-05
0.0295892
9.29593e-05
-7.19452e-05
0.0296497
8.29604e-05
-4.86521e-05
0.0297126
7.18147e-05
0.0297506
6.45707e-05
1.05542e-05
0.0297504
-1.57515e-05
8.97875e-06
0.0297156
8.94562e-06
-8.159e-08
0.0296471
4.67715e-05
-2.70756e-06
0.0295689
8.08254e-05
2.53549e-06
0.029531
9.48387e-05
-6.94577e-08
0.0295689
8.08347e-05
-9.09067e-06
0.0296471
4.67888e-05
-1.06045e-05
0.0297156
8.96844e-06
0.0297504
-1.57287e-05
-2.42981e-05
0.0298335
-0.000124027
-5.94965e-05
0.0297858
-5.95239e-05
-7.8243e-05
0.0296671
3.8775e-05
-4.06332e-05
0.0295047
0.000128618
4.04665e-05
0.029413
0.000166943
7.80967e-05
0.0295047
0.000128627
5.93889e-05
0.0296671
3.87918e-05
2.42501e-05
0.0297858
-5.95024e-05
0.0298336
-0.000124006
-7.20285e-05
0.0300732
-0.000339589
-0.000178199
0.029998
-0.00017822
-0.000240682
0.0297537
6.50507e-05
-0.000132344
0.0293583
0.000293525
0.000132184
0.0290919
0.000398195
0.000240542
0.0293583
0.000293534
0.000178095
0.0297537
6.50667e-05
7.19814e-05
0.029998
-0.000178199
0.0300732
-0.000339568
-0.000147255
0.030655
-0.000816905
-0.000422472
0.0305483
-0.000422488
-0.000636137
0.0300553
0.000159149
-0.000398675
0.0290966
0.000730931
0.000398522
0.0282768
0.00102932
0.000636003
0.0290966
0.000730939
0.000422374
0.0300553
0.000159165
0.000147211
0.0305483
-0.000422468
0.030655
-0.000816886
-0.000253899
0.0319774
-0.00184431
-0.000915501
0.0318714
-0.00091551
-0.00159485
0.0310108
0.000398641
-0.00121848
0.0289271
0.00178861
0.00121834
0.0264332
0.00269049
0.00159472
0.0289271
0.00178861
0.000915408
0.0310108
0.000398656
0.000253856
0.0318714
-0.000915491
0.0319774
-0.00184429
-0.000359862
0.034737
-0.00379785
-0.00177612
0.0347038
-0.00177612
-0.0036785
0.0336853
0.000889612
-0.00371244
0.0304453
0.00403536
0.0037123
0.0241549
0.00686313
0.00367839
0.0304453
0.00403537
0.00177603
0.0336854
0.000889626
0.000359823
0.0347038
-0.0017761
0.034737
-0.00379783
-0.000393041
0.0395078
-0.00643446
-0.00279459
0.0395068
-0.00279459
-0.00691853
0.0395053
0.0015507
-0.0100029
0.039504
0.00744121
0.0100028
0.0395035
0.015517
0.00691842
0.039504
0.00744122
0.00279451
0.0395054
0.00155072
0.000393004
0.0395069
-0.00279457
0.0395078
-0.00643444
-0.000394019
0.0442801
-0.00643593
-0.00279609
0.0443109
-0.00279608
-0.00691984
0.0453257
0.00154918
-0.0100034
0.0485625
0.00743966
0.0100033
0.0548517
0.0155154
0.00691975
0.0485625
0.00743967
0.00279602
0.0453257
0.00154919
0.000393987
0.0443109
-0.00279606
0.0442802
-0.00643591
-0.00036325
0.0470449
-0.00380292
-0.00178129
0.0471469
-0.00178128
-0.00368305
0.0480015
0.000884325
-0.00371422
0.0500798
0.00402996
0.00371412
0.0525717
0.00685768
0.00368296
0.0500798
0.00402996
0.00178123
0.0480015
0.000884335
0.00036322
0.047147
-0.00178126
0.047045
-0.00380291
-0.00026125
0.0483786
-0.0018553
-0.000926742
0.0484779
-0.000926718
-0.00160472
0.0489597
0.000387086
-0.00122236
0.0499086
0.00177674
0.00122227
0.0507245
0.00267851
0.00160465
0.0499086
0.00177675
0.000926689
0.0489598
0.000387094
0.000261224
0.0484779
-0.000926707
0.0483786
-0.00185528
-0.000161932
0.0489826
-0.000838727
-0.000444922
0.0490439
-0.00044489
-0.000655852
0.0492667
0.000135854
-0.000406431
0.0496434
0.00070685
0.00040636
0.0499023
0.00100492
0.000655791
0.0496434
0.000706854
0.000444877
0.0492667
0.000135861
0.000161909
0.0490439
-0.00044488
0.0489827
-0.000838716
-0.0001007
0.0492658
-0.000381909
-0.000222064
0.0492866
-0.000222025
-0.0002792
0.0493641
1.8969e-05
-0.00014751
0.0494904
0.000245446
0.000147454
0.0495679
0.000349328
0.000279152
0.0494905
0.000245449
0.000222031
0.0493641
1.89748e-05
0.000100683
0.0492866
-0.000222018
0.0492658
-0.000381901
-7.989e-05
0.0494328
-0.000205214
-0.000144542
0.0494159
-0.000144495
-0.000152878
0.0494053
-5.19993e-05
-7.00276e-05
0.0494143
3.2767e-05
6.9988e-05
0.049425
6.90955e-05
0.000152845
0.0494143
3.27692e-05
0.000144519
0.0494054
-5.19952e-05
7.98764e-05
0.049416
-0.000144489
0.0494328
-0.000205205
-9.67314e-05
0.0495934
-0.0001701
-0.000155117
0.0495327
-0.000155061
-0.000143911
0.0494446
-0.000132046
-5.93202e-05
0.0493734
-0.000110896
5.9297e-05
0.0493475
-0.000101937
0.000143892
0.0493734
-0.000110895
0.000155105
0.0494446
-0.000132044
9.6724e-05
0.0495328
-0.000155058
0.0495935
-0.000170095
-0.000157445
0.0498307
-0.000225792
-0.000243259
0.0497044
-0.000243196
-0.000215072
0.0495116
-0.000269979
-8.52355e-05
0.0493469
-0.000292784
8.52292e-05
0.0492835
-0.000301475
0.000215068
0.0493469
-0.000292783
0.000243258
0.0495117
-0.000269978
0.000157441
0.0497044
-0.000243194
0.0498308
-0.000225787
-0.000283751
0.0502433
-0.000369374
-0.00043603
0.050009
-0.00043596
-0.000379791
0.0496444
-0.000539249
-0.000148648
0.0493361
-0.000627423
0.000148659
0.0492185
-0.00066131
0.000379802
0.0493361
-0.000627423
0.000436041
0.0496445
-0.00053925
0.000283753
0.0500091
-0.000435961
0.0502433
-0.000369373
-0.000517965
0.0509788
-0.000621685
-0.000800622
0.0505744
-0.000800545
-0.000688156
0.0499193
-0.00108397
-0.000266232
0.0493879
-0.00132055
0.00026626
0.0491922
-0.00140987
0.000688183
0.0493879
-0.00132055
0.000800643
0.0499193
-0.00108398
0.00051797
0.0505745
-0.000800548
0.0509788
-0.000621684
-0.000922329
0.052257
-0.00099642
-0.00145578
0.0516415
-0.0014557
-0.00121955
0.0505237
-0.00222209
-0.000461958
0.0497085
-0.00283128
0.000462004
0.0494318
-0.00305354
0.00121959
0.0497085
-0.00283128
0.00145581
0.0505238
-0.0022221
0.000922339
0.0516415
-0.0014557
0.0522571
-0.000996422
-0.00153793
0.0543312
-0.0014163
-0.0025735
0.0537127
-0.00257342
-0.00203477
0.0520416
-0.00475144
-0.00073872
0.0511579
-0.00631452
0.000738785
0.0509294
-0.00685193
0.00203483
0.0511579
-0.00631453
0.00257354
0.0520416
-0.00475144
0.00153794
0.0537128
-0.00257342
0.0543313
-0.0014163
-0.00215643
0.057153
-0.00147114
-0.00424463
0.0578893
-0.00424454
-0.00291849
0.0568917
-0.0111059
-0.000967239
0.0575291
-0.0150982
0.000967321
0.0579611
-0.0163473
0.00291856
0.0575291
-0.0150982
0.00424468
0.0568918
-0.0111059
0.00215644
0.0578894
-0.00424454
0.057153
-0.00147114
-0.00142011
0.0588679
0.000183367
-0.00524221
0.0655338
-0.00524212
-0.00228112
0.0777859
-0.0307005
-0.000535275
0.0865781
-0.0404714
0.000535371
0.0895807
-0.0432014
0.0022812
0.0865781
-0.0404714
0.00524227
0.0777859
-0.0307005
0.00142011
0.0655338
-0.00524211
0.0588679
0.000183374
0.00524578
0.0514528
0.00660193
0.00700991
0.0620058
0.00701002
0.00651115
0.0839388
0.0024673
0.0971658
-0.0024672
0.101384
-0.00651106
0.0971658
-0.00700984
0.0839388
-0.00524578
0.0620058
0.00701003
0.0514528
0.00660194
0.0157988
0.0297283
0.0157623
0.0289429
0.0357177
0.028943
0.0197382
0.0464219
0.0757015
0.00668505
0.0512404
0.0953951
-0.00668496
0.0525722
0.100815
-0.0197381
0.0512404
0.0953951
-0.0289429
0.0464219
0.0757015
-0.0157988
0.0357177
0.028943
0.0297283
0.0157623
0.0217882
0.0211287
0.0396471
0.0396472
0.0245567
0.101819
0.00801682
0.116727
-0.00801674
0.119889
-0.0245566
0.116727
-0.039647
0.101819
-0.0217881
0.0396472
0.0211286
0.0263991
0.018885
0.0334917
0.016843
0.0148866
0.0175203
0.0108455
0.0119947
0.0108454
0.00373849
0.0101986
0.00707634
-0.00373864
0.00959795
0.00585093
-0.0108456
0.0101986
0.00707636
-0.016843
0.0119947
0.0108455
-0.0263991
0.0148866
0.0175203
0.018885
0.0334917
0.0224006
0.0418672
0.0282293
0.0139511
0.0276491
0.0144787
0.00904936
0.021798
0.00904928
0.00313785
0.0186271
0.00600433
-0.00313801
0.0176119
0.00501318
-0.0090495
0.0186271
0.00600434
-0.0139512
0.021798
0.0090493
-0.0224007
0.0276491
0.0144788
0.0418672
0.0282293
0.0081825
0.0346712
0.0117833
0.00809991
0.0299952
0.00837374
0.00587852
0.0262406
0.00587844
0.00212259
0.0237684
0.004219
-0.00212276
0.0229164
0.00364334
-0.00587867
0.0237684
0.00421901
-0.00810002
0.0262406
0.00587847
-0.00818255
0.0299952
0.00837378
0.0346711
0.0117834
0.00350658
0.0320505
0.00544002
0.00434524
0.030191
0.00444008
0.00340638
0.0281181
0.00340631
0.00127055
0.026579
0.00263648
-0.00127072
0.0260201
0.00235605
-0.00340653
0.026579
0.0026365
-0.00434535
0.0281181
0.00340633
-0.00350664
0.030191
0.00444012
0.0320505
0.00544005
0.00164702
0.030861
0.00261558
0.00227238
0.0300239
0.00228262
0.00186727
0.0289282
0.0018672
0.000711683
0.0280551
0.00153615
-0.000711854
0.0277276
0.00141171
-0.00186742
0.0280551
0.00153617
-0.0022725
0.0289281
0.00186722
-0.00164708
0.0300239
0.00228266
0.030861
0.00261562
0.00080995
0.0302658
0.00127889
0.00117662
0.0298629
0.00115908
0.000994265
0.0292927
0.000994196
0.00038415
0.0288193
0.000857473
-0.000384323
0.0286381
0.000805089
-0.000994418
0.0288193
0.000857488
-0.00117674
0.0292927
0.000994224
-0.000810003
0.0298629
0.00115912
0.0302658
0.00127893
0.00040702
0.0299587
0.000629939
0.000606399
0.0297583
0.000585333
0.000520868
0.0294636
0.000520804
0.000202927
0.0292128
0.000466051
-0.0002031
0.0291156
0.000444836
-0.00052102
0.0292128
0.000466066
-0.000606513
0.0294636
0.000520832
-0.000407073
0.0297583
0.00058537
0.0299587
0.000629979
0.000206635
0.0297991
0.000309656
0.000311654
0.0296982
0.0002937
0.000270114
0.0295465
0.000270056
0.000105716
0.0294153
0.000249749
-0.000105888
0.0293639
0.000241837
-0.000270266
0.0294153
0.000249764
-0.000311768
0.0295465
0.000270084
-0.000206688
0.0296982
0.000293737
0.0297991
0.000309696
0.000105751
0.0297155
0.000146652
0.000160006
0.0296656
0.000143508
0.000138895
0.0295886
0.000138843
5.43544e-05
0.0295201
0.000134863
-5.45244e-05
0.0294928
0.000133331
-0.000139044
0.0295201
0.000134878
-0.000160118
0.0295886
0.000138871
-0.000105804
0.0296656
0.000143545
0.0297155
0.000146692
5.58447e-05
0.0296703
5.37716e-05
8.29813e-05
0.0296497
6.03797e-05
7.04314e-05
0.0296136
7.03864e-05
2.70756e-05
0.0295771
7.92067e-05
-2.72425e-05
0.0295613
8.27439e-05
-7.05783e-05
0.0295771
7.92211e-05
-8.30909e-05
0.0296136
7.04134e-05
-5.58961e-05
0.0296497
6.04156e-05
0.0296703
5.38101e-05
3.52514e-05
0.0296421
-2.29382e-05
4.68046e-05
0.0296471
-1.19144e-07
3.39723e-05
0.0296391
3.39344e-05
1.13058e-05
0.0296167
6.37471e-05
-1.14685e-05
0.0296031
7.57243e-05
-3.41154e-05
0.0296167
6.37611e-05
-4.6911e-05
0.0296391
3.39605e-05
-3.53016e-05
0.0296471
-8.43326e-08
0.0296421
-2.29002e-05
4.02055e-05
0.029618
-0.000140181
3.88023e-05
0.0296671
-7.82733e-05
1.15997e-05
0.0296934
1.15691e-05
-2.30768e-06
0.0296696
8.95625e-05
2.15e-06
0.0296442
0.000121288
-1.17382e-05
0.0296696
8.95759e-05
-3.89053e-05
0.0296934
1.15943e-05
-4.02539e-05
0.0296671
-7.82397e-05
0.029618
-0.000140145
8.93405e-05
0.0295959
-0.000406973
6.50721e-05
0.0297537
-0.000240705
-1.22078e-05
0.0298478
-1.22309e-05
-2.76737e-05
0.0297957
0.00018278
2.75222e-05
0.0297231
0.00026405
1.20749e-05
0.0297957
0.000182793
-6.51705e-05
0.0298478
-1.2207e-05
-8.93872e-05
0.0297537
-0.000240673
0.0295959
-0.000406939
0.000247162
0.0296275
-0.00109579
0.000159165
0.0300553
-0.000636152
-6.43558e-05
0.0302948
-6.43713e-05
-0.000100289
0.0301542
0.000408214
0.000100145
0.0299379
0.000613935
6.42292e-05
0.0301543
0.000408226
-0.000159258
0.0302948
-6.43486e-05
-0.000247206
0.0300553
-0.000636122
0.0296276
-0.00109576
0.000674905
0.0300238
-0.00291559
0.00039865
0.0310108
-0.00159486
-0.000204885
0.0315018
-0.000204892
-0.000316597
0.0311739
0.000880603
0.00031646
0.0306058
0.00138949
0.000204765
0.0311739
0.000880614
-0.000398738
0.0315018
-0.000204871
-0.000674947
0.0310108
-0.00159483
0.0300239
-0.00291556
0.00166186
0.0321004
-0.00753632
0.000889615
0.0336854
-0.0036785
-0.000532757
0.0343464
-0.000532757
-0.000884665
0.0338512
0.00170993
0.000884538
0.0328087
0.00289099
0.000532646
0.0338512
0.00170994
-0.000889697
0.0343465
-0.000532738
-0.0016619
0.0336854
-0.00367848
0.0321004
-0.0075363
0.00324683
0.0395063
-0.0170873
0.0015507
0.0395053
-0.00691852
-0.00102802
0.0395038
-0.00102801
-0.00192713
0.0395025
0.00268896
0.00192701
0.0395019
0.00496957
0.00102792
0.0395025
0.00268897
-0.00155078
0.0395038
-0.001028
-0.00324687
0.0395054
-0.0069185
0.0395064
-0.0170873
0.00324583
0.0469131
-0.0170886
0.00154917
0.0453257
-0.00691983
-0.00102936
0.0446608
-0.00102935
-0.00192765
0.0451528
0.0026876
0.00192755
0.046194
0.0049682
0.00102927
0.0451528
0.00268761
-0.00154924
0.0446609
-0.00102933
-0.00324586
0.0453257
-0.00691981
0.0469132
-0.0170886
0.00165839
0.0489926
-0.00754077
0.000884308
0.0480015
-0.00368303
-0.000537418
0.0475043
-0.000537393
-0.000886494
0.0478266
0.00170519
0.0008864
0.0483925
0.00288621
0.000537336
0.0478266
0.0017052
-0.000884367
0.0475043
-0.000537379
-0.00165842
0.0480015
-0.00368301
0.0489926
-0.00754075
0.000667329
0.0493952
-0.00292522
0.000387062
0.0489597
-0.00160469
-0.000215062
0.0487085
-0.000215029
-0.000320597
0.0488387
0.000870197
0.000320516
0.0490509
0.00137897
0.000214992
0.0488387
0.000870203
-0.000387112
0.0487085
-0.000215017
-0.000667353
0.0489598
-0.00160467
0.0493952
-0.0029252
0.000231905
0.0494394
-0.00111494
0.000135822
0.0492667
-0.00065581
-8.48563e-05
0.0491498
-8.48135e-05
-0.000108357
0.049182
0.000387082
0.000108289
0.0492467
0.000592528
8.47982e-05
0.049182
0.000387087
-0.000135864
0.0491499
-8.48039e-05
-0.000231926
0.0492668
-0.000655797
0.0494395
-0.00111492
5.91846e-05
0.0494425
-0.000444115
1.89298e-05
0.0493641
-0.000279148
-5.27224e-05
0.0492931
-5.267e-05
-4.36281e-05
0.0492778
0.000140589
4.35755e-05
0.0492877
0.000221166
5.26772e-05
0.0492778
0.000140593
-1.89616e-05
0.0492932
-5.26626e-05
-5.91999e-05
0.0493642
-0.000279138
0.0494425
-0.000444104
-1.91718e-05
0.0494679
-0.000211412
-5.20464e-05
0.0494053
-0.000152816
-6.81121e-05
0.0493253
-6.80498e-05
-3.36991e-05
0.0492706
5.50121e-06
3.36616e-05
0.049254
3.54768e-05
6.80804e-05
0.0492707
5.50392e-06
5.20249e-05
0.0493253
-6.80448e-05
1.91605e-05
0.0494054
-0.00015281
0.0494679
-0.000211404
-8.16924e-05
0.0495377
-0.000158246
-0.000132102
0.0494446
-0.00014384
-0.000122761
0.0493067
-0.000122689
-5.0361e-05
0.0491915
-0.000104127
5.03392e-05
0.049148
-9.65615e-05
0.000122743
0.0491916
-0.000104126
0.00013209
0.0493067
-0.000122686
8.16868e-05
0.0494446
-0.000143836
0.0495378
-0.000158242
-0.000174849
0.0496871
-0.000200278
-0.000270042
0.0495116
-0.000214991
-0.000237877
0.0492424
-0.000237795
-9.39263e-05
0.0490123
-0.000257411
9.39205e-05
0.0489237
-0.000264952
0.000237874
0.0490123
-0.000257411
0.000270041
0.0492424
-0.000237795
0.000174848
0.0495117
-0.000214991
0.0496872
-0.000200277
-0.000350337
0.0499909
-0.000322783
-0.000539319
0.0496445
-0.000379701
-0.000467965
0.0490997
-0.000467874
-0.000182535
0.048643
-0.000543442
0.000182546
0.0484699
-0.000572568
0.000467976
0.048643
-0.000543443
0.000539329
0.0490998
-0.000467877
0.000350341
0.0496445
-0.000379704
0.049991
-0.000322786
-0.000696826
0.0506041
-0.000537912
-0.00108405
0.0499193
-0.000688059
-0.000924731
0.0487812
-0.000924633
-0.000355555
0.0478772
-0.00112382
0.000355582
0.0475485
-0.00119946
0.000924756
0.0478772
-0.00112382
0.00108407
0.0487812
-0.000924638
0.000696834
0.0499193
-0.000688066
0.0506041
-0.000537919
-0.00138161
0.0518372
-0.000847817
-0.00222217
0.0505237
-0.00121945
-0.00182874
0.0479944
-0.00182863
-0.000684219
0.0462253
-0.00232378
0.000684265
0.0456334
-0.00250676
0.00182878
0.0462253
-0.00232378
0.0022222
0.0479944
-0.00182864
0.00138162
0.0505238
-0.00121946
0.0518372
-0.000847826
-0.00269504
0.0542764
-0.00116039
-0.00475152
0.0520416
-0.00203466
-0.00359786
0.0456872
-0.00359775
-0.00127613
0.0423742
-0.00478508
0.00127619
0.041434
-0.00520472
0.00359791
0.0423743
-0.00478508
0.00475156
0.0456872
-0.00359776
0.00269505
0.0520417
-0.00203467
0.0542764
-0.0011604
-0.00492983
0.0588075
-0.00107229
-0.0111059
0.0568918
-0.00291839
-0.00691081
0.0372971
-0.0069107
-0.0022164
0.0321559
-0.00957407
0.00221648
0.031107
-0.0104531
0.00691088
0.0321559
-0.00957407
0.011106
0.0372971
-0.0069107
0.00492984
0.0568918
-0.00291839
0.0588076
-0.0010723
-0.00684559
0.0652864
0.000550209
-0.0307006
0.0777859
-0.00228101
-0.012052
-0.0120519
-0.00326527
-0.017102
0.00326537
-0.0186248
0.0120521
-0.017102
0.0307007
-0.0120519
0.00684559
0.0777859
-0.00228102
0.0652864
0.000550196
0.00565387
0.0606132
0.00562155
0.0839388
0.00651126
-0.00565388
0.0839387
0.00651123
0.0606131
0.00562153
0.0289795
0.0350947
0.0123015
0.0757014
0.0464219
0.0197383
0.0394317
0.0725395
0.0394318
0.0121047
0.0725723
0.0501499
-0.0121046
0.0716463
0.0533777
-0.0394316
0.0725723
0.0501498
-0.0757014
0.0725395
0.0394318
-0.0289795
0.0464218
0.0197382
0.0350947
0.0123014
0.0403067
0.0159169
0.101819
0.0245568
0.0394645
0.197249
0.0394646
0.0111787
0.170373
0.0472121
-0.0111786
0.164475
0.0494175
-0.0394644
0.170373
0.0472121
-0.101819
0.197249
0.0394645
-0.0403066
0.0245567
0.0159168
0.0125886
0.172071
0.0125887
0.00528057
0.163551
0.0141295
-0.00528058
0.160316
0.0147203
-0.0125886
0.163551
0.0141295
0.172071
0.0125886
0.0040685
0.163934
0.00406853
0.00204481
0.161191
0.00438442
-0.00204484
0.159877
0.00452859
-0.0040685
0.161191
0.00438441
0.163934
0.0040685
0.00132462
0.161285
0.00132464
0.00073085
0.160393
0.00139086
-0.000730877
0.159914
0.00142452
-0.00132464
0.160393