/*--------------------------------*- C++ -*----------------------------------*\
  =========                 |
  \\      /  F ield         | OpenFOAM: The Open Source CFD Toolbox
   \\    /   O peration     | Website:  https://openfoam.org
    \\  /    A nd           | Version:  6
     \\/     M anipulation  |
\*---------------------------------------------------------------------------*/
FoamFile
{
    version     2.0;
    format      ascii;
    class       volScalarField;
    location    "0.9";
    object      T;
}
// * * * * * * * * * * * * * * * * * * * * * * * * * * * * * * * * * * * * * //

dimensions      [0 0 0 1 0 0 0];

internalField   nonuniform List<scalar> 
3029
(
293.15
293.15
293.151
293.15
293.164
293.15
293.151
293.15
293.15
293.15
293.15
293.151
293.15
293.167
293.15
293.151
293.15
293.15
293.151
293.151
293.152
293.151
293.175
293.151
293.152
293.151
293.151
293.151
293.153
293.154
293.153
293.19
293.152
293.153
293.152
293.151
293.152
293.154
293.156
293.156
293.218
293.155
293.155
293.153
293.152
293.153
293.156
293.159
293.163
293.27
293.161
293.157
293.154
293.153
293.155
293.159
293.163
293.179
293.364
293.177
293.161
293.156
293.154
293.158
293.163
293.173
293.216
293.533
293.214
293.17
293.159
293.156
293.163
293.171
293.193
293.299
293.833
293.297
293.19
293.167
293.162
293.176
293.191
293.241
293.475
294.348
293.472
293.237
293.186
293.174
293.21
293.24
293.347
293.828
295.219
293.825
293.343
293.234
293.207
293.289
293.355
293.59
294.508
296.616
294.506
293.585
293.349
293.286
293.475
293.612
294.064
295.696
298.844
295.693
294.059
293.606
293.472
293.865
294.135
295.137
298.257
302.691
298.253
295.132
294.128
293.861
294.645
295.289
297.035
300.296
304.856
300.292
297.029
295.282
294.64
295.996
296.592
299.187
318.631
354.599
318.628
299.181
296.584
295.991
297.613
299.472
320.216
375.175
399.712
375.173
320.21
299.464
297.606
299.896
306.184
345.046
397.266
401.879
397.265
345.041
306.175
299.889
303.378
313.97
359.435
402.861
402.38
402.861
359.43
313.961
303.37
308.127
321.629
367.303
403.552
402.336
403.552
367.299
321.62
308.119
314.113
329.363
372.568
402.96
402.076
402.959
372.563
329.353
314.104
321.359
337.622
377.223
402.193
401.73
402.192
377.218
337.612
321.35
329.931
346.737
382.121
401.626
401.367
401.625
382.115
346.727
329.921
339.887
356.887
387.595
401.395
401.036
401.394
387.589
356.876
339.877
351.255
368.14
393.762
401.566
400.777
401.564
393.756
368.129
351.244
364.007
380.484
400.629
402.173
400.622
402.172
400.622
380.473
363.995
378.049
393.83
408.157
403.285
400.657
403.284
408.151
393.818
378.037
393.209
407.988
416.146
404.814
400.777
404.813
416.14
407.976
393.197
409.218
422.701
424.805
407.524
401.872
407.522
424.799
422.69
409.205
425.774
437.558
432.972
409.673
401.764
409.671
432.966
437.547
425.761
442.382
452.088
444.198
419.365
410.379
419.363
444.191
452.077
442.368
460.19
466.336
454.436
426.49
415.469
426.487
454.429
466.325
460.175
481.275
482.916
462.64
421.431
404.39
421.429
462.633
482.904
481.259
537.619
536.187
515.158
453.049
406.519
453.045
515.149
536.173
537.602
293.15
293.152
293.151
293.157
293.209
293.156
293.151
293.151
293.15
293.15
293.152
293.152
293.158
293.214
293.157
293.151
293.151
293.15
293.151
293.153
293.153
293.16
293.225
293.159
293.152
293.152
293.151
293.153
293.154
293.155
293.164
293.252
293.163
293.154
293.153
293.152
293.154
293.156
293.159
293.173
293.308
293.171
293.157
293.154
293.152
293.156
293.159
293.164
293.193
293.422
293.192
293.162
293.156
293.154
293.159
293.162
293.175
293.244
293.638
293.242
293.172
293.158
293.155
293.163
293.169
293.198
293.355
294.024
293.353
293.194
293.164
293.159
293.171
293.185
293.25
293.584
294.679
293.582
293.246
293.18
293.166
293.191
293.223
293.365
294.024
295.741
294.021
293.36
293.216
293.185
293.239
293.311
293.606
294.817
297.401
294.814
293.601
293.304
293.233
293.354
293.509
294.094
296.183
299.9
296.18
294.088
293.501
293.347
293.612
293.927
295.01
298.369
303.472
298.365
295.004
293.919
293.604
294.135
294.743
296.668
301.947
308.754
301.943
296.661
294.734
294.126
295.289
296.288
299.553
306.696
313.671
306.691
299.545
296.278
295.28
296.592
298.723
303.304
313.74
328.333
313.735
303.296
298.713
296.582
299.472
302.082
311.873
341.582
371.838
341.578
311.865
302.071
299.461
306.183
307.199
325.058
367.115
391.938
367.112
325.05
307.188
306.172
313.968
313.878
336.963
379.75
397.225
379.747
336.956
313.866
313.957
321.628
321.641
346.976
385.985
398.374
385.983
346.968
321.629
321.617
329.362
330.341
356.201
390.108
398.791
390.105
356.192
330.329
329.35
337.621
340.025
365.514
393.91
399.443
393.907
365.505
340.012
337.609
346.736
350.772
375.362
398.051
400.622
398.048
375.353
350.759
346.724
356.885
362.629
385.925
402.753
402.417
402.75
385.916
362.616
356.873
368.139
375.607
397.259
408.116
404.901
408.113
397.249
375.593
368.127
380.483
389.667
409.352
414.223
408.184
414.219
409.342
389.653
380.47
393.829
404.783
422.302
421.373
412.648
421.37
422.292
404.77
393.816
407.987
420.726
435.81
429.759
418.65
429.755
435.8
420.713
407.974
422.701
438.001
452.322
442.887
430.323
442.883
452.312
437.988
422.688
437.558
454.003
463.75
455.472
443.054
455.468
463.74
453.99
437.545
452.087
475.284
515.9
523.706
520.231
523.702
515.89
475.272
452.075
466.336
487.453
534.83
550.588
549.498
550.584
534.822
487.441
466.323
482.916
490.825
510.26
508.261
501.947
508.257
510.252
490.813
482.902
536.187
536.236
525.492
470.599
422.642
470.595
525.481
536.222
536.173
293.151
293.151
293.166
293.119
293.051
293.118
293.165
293.151
293.151
293.151
293.152
293.167
293.122
293.096
293.121
293.166
293.151
293.151
293.152
293.153
293.169
293.131
293.211
293.129
293.168
293.152
293.151
293.154
293.155
293.173
293.162
293.444
293.161
293.171
293.153
293.152
293.156
293.158
293.18
293.245
293.861
293.243
293.177
293.156
293.154
293.158
293.164
293.198
293.426
294.549
293.424
293.195
293.16
293.156
293.163
293.174
293.245
293.777
295.617
293.774
293.241
293.17
293.16
293.172
293.197
293.352
294.398
297.202
294.395
293.348
293.192
293.168
293.192
293.249
293.577
295.431
299.472
295.428
293.572
293.243
293.187
293.239
293.363
294.013
297.064
302.632
297.061
294.009
293.357
293.234
293.346
293.605
294.809
299.536
306.912
299.532
294.803
293.598
293.339
293.589
294.092
296.177
303.13
312.561
303.126
296.171
294.085
293.582
294.062
295.009
298.404
308.134
319.747
308.129
298.398
295.001
294.055
295.136
296.666
301.829
314.781
328.548
314.776
301.822
296.657
295.127
297.033
299.551
306.8
323.103
338.352
323.097
306.792
299.542
297.025
299.185
303.302
313.299
331.753
345.941
331.747
313.29
303.292
299.175
320.214
311.87
320.962
341.742
358.199
341.736
320.952
311.86
320.205
345.044
325.055
329.837
354.231
372.733
354.225
329.826
325.045
345.037
359.433
336.961
339.655
366.343
383.508
366.337
339.644
336.951
359.427
367.302
346.974
350.276
377.812
392.341
377.806
350.265
346.963
367.295
372.567
356.199
361.749
389.305
401.025
389.299
361.737
356.188
372.56
377.221
365.512
374.13
401.257
410.272
401.25
374.118
365.501
377.215
382.119
375.36
387.432
413.824
420.271
413.817
387.419
375.349
382.112
387.593
385.923
401.628
427.063
431.079
427.056
401.616
385.912
387.586
393.76
397.257
416.689
440.989
442.742
440.982
416.676
397.246
393.753
400.628
409.351
432.602
455.695
455.419
455.688
432.59
409.339
400.62
408.156
422.301
449.547
471.524
469.628
471.517
449.534
422.289
408.148
416.145
435.809
467.576
489.275
486.589
489.267
467.563
435.798
416.137
424.805
452.322
489.829
512.002
510.162
511.994
489.816
452.31
424.797
432.973
463.75
510.187
543.273
546.316
543.265
510.175
463.738
432.965
444.199
515.9
626.431
653.317
664.52
653.312
626.424
515.89
444.191
454.436
534.831
534.822
454.428
462.641
510.261
527.722
540.633
543.153
540.628
527.713
510.252
462.632
515.159
525.493
531.674
513.101
485.609
513.096
531.663
525.481
515.149
536.991
509.955
472.735
509.949
536.98
542.524
512.522
471.475
512.515
542.513
547.827
516.221
473.287
516.214
547.815
552.988
520.062
475.862
520.055
552.976
558.047
523.875
478.642
523.868
558.035
563.029
527.648
481.486
527.641
563.017
567.941
531.387
484.36
531.38
567.929
572.791
535.102
487.264
535.095
572.78
577.545
538.763
490.16
538.756
577.533
582.368
542.518
493.198
542.511
582.356
586.46
545.683
495.724
545.676
586.448
593.607
551.397
500.568
551.39
593.595
293.15
293.156
293.119
293.882
298.15
293.881
293.117
293.155
293.149
293.15
293.157
293.121
294.01
298.6
294.008
293.12
293.156
293.15
293.151
293.159
293.13
294.316
299.575
294.314
293.128
293.158
293.15
293.152
293.163
293.161
294.865
301.142
294.862
293.159
293.161
293.151
293.155
293.171
293.244
295.746
303.37
295.743
293.241
293.169
293.153
293.161
293.192
293.425
297.072
306.349
297.07
293.422
293.188
293.159
293.177
293.242
293.775
298.987
310.194
298.984
293.772
293.238
293.174
293.214
293.353
294.396
301.66
315.039
301.657
294.392
293.348
293.21
293.297
293.582
295.429
305.291
321.041
305.287
295.425
293.577
293.292
293.472
294.021
297.062
310.102
328.365
310.098
297.057
294.016
293.467
293.825
294.814
299.534
316.329
337.176
316.325
299.528
294.808
293.819
294.505
296.18
303.128
324.191
347.602
324.186
303.122
296.173
294.499
295.693
298.366
308.132
333.826
359.668
333.82
308.125
298.358
295.686
298.253
301.943
314.779
345.16
373.161
345.153
314.771
301.935
298.246
300.292
306.692
323.1
357.743
387.468
357.736
323.092
306.684
300.284
318.627
313.736
331.75
370.448
400.966
370.44
331.741
313.726
318.619
375.174
341.579
341.739
381.454
411.476
381.446
341.729
341.571
375.17
397.266
367.113
354.228
391.81
421.304
391.802
354.217
367.107
397.265
402.862
379.748
366.34
403.294
432.563
403.285
366.329
379.743
402.861
403.552
385.984
377.809
416.191
445.259
416.182
377.799
385.98
403.552
402.96
390.107
389.302
430.288
459.064
430.278
389.292
390.102
402.959
402.193
393.909
401.254
445.317
473.671
445.307
401.243
393.904
402.192
401.626
398.05
413.822
461.078
488.868
461.068
413.811
398.045
401.625
401.395
402.752
427.06
477.411
504.505
477.401
427.049
402.747
401.394
401.566
408.115
440.987
494.257
520.531
494.247
440.976
408.11
401.565
402.174
414.223
455.693
511.674
537.013
511.663
455.682
414.217
402.172
403.286
421.374
471.523
529.934
554.232
529.924
471.511
421.367
403.285
404.816
429.76
489.274
549.857
572.96
549.848
489.262
429.753
404.814
407.526
442.888
512.002
573.31
594.992
573.301
511.99
442.881
407.524
409.675
455.474
543.273
606.622
625.359
606.614
543.262
455.467
409.673
419.368
523.708
653.317
671.957
683.126
671.953
653.31
523.701
419.365
426.492
550.591
550.583
426.489
421.435
508.263
540.635
560.836
570.786
560.829
540.628
508.258
421.431
453.052
470.603
513.104
549.538
555.702
549.531
513.097
470.597
453.047
509.958
544.719
548.668
544.712
509.95
512.525
544.879
547.415
544.872
512.517
516.224
547.134
548.693
547.127
516.216
520.064
550.137
550.904
550.13
520.056
523.878
553.373
553.434
553.365
523.869
527.651
556.658
556.056
556.651
527.643
531.39
559.929
558.694
559.922
531.382
535.105
563.169
561.324
563.162
535.097
538.766
566.348
563.916
566.341
538.757
542.521
569.576
566.569
569.569
542.512
545.686
572.316
568.813
572.309
545.678
551.4
577.13
572.829
577.123
551.392
293.163
293.208
293.049
298.148
315.062
298.145
293.048
293.207
293.163
293.166
293.212
293.094
298.598
316.036
298.595
293.092
293.21
293.165
293.173
293.223
293.209
299.573
318.01
299.57
293.206
293.222
293.172
293.188
293.249
293.441
301.139
320.967
301.137
293.439
293.247
293.187
293.216
293.305
293.858
303.367
324.876
303.364
293.856
293.303
293.214
293.267
293.419
294.546
306.347
329.737
306.344
294.543
293.416
293.265
293.361
293.635
295.614
310.192
335.59
310.188
295.61
293.631
293.358
293.53
294.02
297.198
315.037
342.511
315.033
297.194
294.016
293.526
293.829
294.675
299.468
321.038
350.603
321.034
299.464
294.671
293.825
294.344
295.737
302.628
328.362
359.98
328.357
302.623
295.732
294.339
295.215
297.396
306.907
337.173
370.752
337.168
306.902
297.391
295.211
296.612
299.895
312.556
347.599
382.994
347.594
312.55
299.889
296.607
298.84
303.467
319.742
359.665
396.695
359.659
319.735
303.461
298.834
302.686
308.749
328.543
373.157
411.666
373.151
328.536
308.742
302.68
304.851
313.665
338.346
387.464
427.418
387.457
338.338
313.658
304.844
354.595
328.327
345.935
400.962
443.078
400.955
345.926
328.319
354.591
399.712
371.835
358.193
411.471
457.212
411.463
358.185
371.832
399.712
401.879
391.937
372.729
421.3
469.899
421.291
372.722
391.936
401.879
402.38
397.225
383.504
432.559
482.424
432.55
383.497
397.224
402.38
402.337
398.373
392.338
445.255
495.352
445.246
392.331
398.373
402.337
402.076
398.791
401.022
459.06
508.77
459.051
401.015
398.79
402.076
401.73
399.443
410.268
473.667
522.613
473.658
410.261
399.442
401.73
401.368
400.622
420.268
488.864
536.811
488.855
420.26
400.62
401.367
401.037
402.417
431.077
504.502
551.259
504.492
431.069
402.415
401.036
400.778
404.902
442.739
520.529
565.913
520.519
442.731
404.9
400.777
400.624
408.185
455.417
537.011
580.776
537.002
455.409
408.182
400.623
400.659
412.649
469.627
554.23
595.945
554.221
469.618
412.646
400.658
400.779
418.652
486.588
572.959
611.729
572.95
486.58
418.649
400.779
401.875
430.325
510.162
594.992
629.069
594.983
510.153
430.321
401.874
401.767
443.057
546.317
625.359
650.097
625.352
546.308
443.052
401.766
410.382
520.233
664.521
683.126
695.226
683.123
664.515
520.228
410.381
415.473
549.501
549.496
415.472
404.394
501.951
543.157
570.789
590.126
570.785
543.152
501.947
404.393
406.524
422.646
485.614
555.705
590.152
555.7
485.61
422.645
406.523
472.739
548.672
590.704
548.667
472.736
471.479
547.419
591.992
547.414
471.475
473.291
548.697
593.765
548.692
473.287
475.867
550.909
595.744
550.903
475.863
478.646
553.438
597.787
553.432
478.642
481.49
556.06
599.829
556.055
481.486
484.364
558.698
601.848
558.693
484.36
487.268
561.328
603.838
561.323
487.264
490.165
563.92
605.784
563.915
490.16
493.203
566.573
607.745
566.568
493.199
495.728
568.817
609.433
568.813
495.724
500.573
572.833
612.306
572.829
500.569
293.149
293.155
293.117
293.879
298.144
293.878
293.116
293.155
293.149
293.15
293.156
293.119
294.006
298.594
294.005
293.118
293.155
293.149
293.15
293.158
293.128
294.312
299.569
294.311
293.127
293.157
293.15
293.151
293.161
293.158
294.86
301.135
294.859
293.157
293.16
293.15
293.153
293.169
293.241
295.741
303.363
295.739
293.239
293.167
293.152
293.159
293.189
293.421
297.067
306.342
297.066
293.42
293.187
293.158
293.175
293.238
293.771
298.981
310.187
298.98
293.769
293.236
293.173
293.211
293.349
294.392
301.654
315.031
301.652
294.39
293.347
293.209
293.294
293.578
295.424
305.284
321.032
305.282
295.422
293.575
293.291
293.469
294.017
297.057
310.094
328.356
310.092
297.054
294.014
293.466
293.821
294.809
299.528
316.321
337.166
316.318
299.525
294.805
293.818
294.501
296.175
303.121
324.182
347.591
324.178
303.118
296.171
294.498
295.689
298.36
308.124
333.816
359.656
333.812
308.12
298.356
295.685
298.249
301.937
314.771
345.149
373.148
345.145
314.767
301.932
298.244
300.287
306.686
323.092
357.731
387.455
357.727
323.086
306.681
300.282
318.623
313.73
331.741
370.436
400.952
370.431
331.735
313.723
318.617
375.171
341.574
341.73
381.441
411.461
381.436
341.724
341.569
375.169
397.265
367.109
354.219
391.797
421.289
391.791
354.213
367.105
397.264
402.861
379.745
366.331
403.28
432.548
403.274
366.325
379.742
402.861
403.552
385.981
377.801
416.177
445.244
416.171
377.794
385.979
403.552
402.959
390.104
389.294
430.274
459.049
430.267
389.287
390.101
402.959
402.193
393.906
401.245
445.302
473.656
445.296
401.238
393.903
402.192
401.626
398.046
413.813
461.064
488.853
461.058
413.806
398.043
401.625
401.394
402.749
427.052
477.397
504.491
477.39
427.044
402.746
401.394
401.565
408.112
440.979
494.244
520.518
494.237
440.971
408.109
401.565
402.173
414.219
455.685
511.661
537.001
511.654
455.677
414.216
402.172
403.286
421.37
471.515
529.922
554.22
529.915
471.507
421.366
403.285
404.815
429.756
489.266
549.846
572.95
549.84
489.258
429.752
404.814
407.525
442.884
511.994
573.3
594.984
573.294
511.986
442.88
407.524
409.674
455.47
543.266
606.614
625.353
606.609
543.258
455.465
409.673
419.366
523.704
653.313
671.954
683.124
671.951
653.308
523.699
419.365
426.491
550.587
550.582
426.489
421.433
508.26
540.631
560.833
570.788
560.829
540.627
508.256
421.431
453.049
470.599
513.1
549.535
555.704
549.531
513.095
470.596
453.046
509.953
544.716
548.67
544.712
509.949
512.52
544.876
547.417
544.872
512.515
516.219
547.131
548.695
547.127
516.214
520.059
550.134
550.906
550.13
520.055
523.873
553.37
553.436
553.366
523.868
527.646
556.655
556.058
556.651
527.641
531.385
559.926
558.696
559.923
531.38
535.1
563.167
561.326
563.163
535.096
538.761
566.345
563.919
566.342
538.756
542.516
569.574
566.571
569.571
542.511
545.681
572.314
568.816
572.311
545.677
551.395
577.128
572.832
577.125
551.391
293.151
293.15
293.164
293.116
293.047
293.116
293.164
293.15
293.151
293.151
293.151
293.165
293.119
293.091
293.118
293.164
293.15
293.151
293.151
293.151
293.167
293.127
293.206
293.126
293.166
293.151
293.151
293.152
293.153
293.169
293.158
293.438
293.157
293.169
293.152
293.152
293.154
293.155
293.176
293.24
293.855
293.239
293.175
293.154
293.153
293.156
293.16
293.193
293.42
294.542
293.419
293.192
293.158
293.155
293.159
293.169
293.239
293.77
295.609
293.769
293.238
293.168
293.158
293.167
293.191
293.346
294.39
297.193
294.389
293.344
293.19
293.166
293.187
293.242
293.57
295.423
299.463
295.422
293.568
293.241
293.185
293.234
293.356
294.006
297.055
302.622
297.054
294.004
293.354
293.232
293.339
293.597
294.8
299.526
306.901
299.524
294.798
293.595
293.337
293.582
294.084
296.168
303.119
312.549
303.117
296.166
294.081
293.579
294.055
295
298.395
308.122
319.734
308.12
298.392
294.997
294.052
295.128
296.656
301.818
314.769
328.534
314.766
301.815
296.653
295.125
297.025
299.541
306.789
323.089
338.337
323.086
306.786
299.538
297.022
299.176
303.291
313.286
331.738
345.925
331.735
313.283
303.287
299.172
320.206
311.86
320.948
341.726
358.184
341.723
320.945
311.855
320.202
345.038
325.045
329.823
354.215
372.721
354.212
329.818
325.041
345.035
359.428
336.951
339.641
366.327
383.497
366.325
339.636
336.947
359.425
367.296
346.964
350.261
377.797
392.33
377.794
350.257
346.959
367.294
372.561
356.189
361.733
389.29
401.015
389.287
361.729
356.184
372.559
377.216
365.502
374.115
401.241
410.261
401.238
374.11
365.497
377.213
382.114
375.35
387.416
413.809
420.26
413.806
387.411
375.345
382.111
387.588
385.913
401.613
427.047
431.069
427.044
401.607
385.908
387.584
393.754
397.247
416.674
440.975
442.732
440.971
416.668
397.242
393.751
400.622
409.341
432.588
455.681
455.409
455.678
432.582
409.335
400.618
408.15
422.291
449.533
471.511
469.619
471.508
449.527
422.286
408.147
416.14
435.8
467.563
489.262
486.581
489.259
467.557
435.794
416.136
424.799
452.313
489.816
511.99
510.154
511.987
489.811
452.307
424.796
432.967
463.741
510.176
543.263
546.31
543.259
510.17
463.735
432.964
444.193
515.892
626.426
653.312
664.517
653.309
626.421
515.887
444.19
454.431
534.824
534.82
454.428
462.635
510.255
527.716
540.631
543.155
540.629
527.712
510.25
462.631
515.153
525.486
531.667
513.1
485.613
513.098
531.663
525.481
515.148
536.984
509.954
472.739
509.951
536.98
542.517
512.52
471.478
512.517
542.513
547.82
516.219
473.29
516.216
547.815
552.982
520.06
475.866
520.057
552.976
558.04
523.873
478.645
523.87
558.035
563.022
527.647
481.489
527.644
563.017
567.934
531.385
484.363
531.383
567.929
572.785
535.101
487.267
535.098
572.78
577.539
538.761
490.164
538.759
577.534
582.361
542.516
493.202
542.514
582.357
586.454
545.682
495.727
545.679
586.449
593.601
551.396
500.572
551.393
593.596
293.15
293.151
293.15
293.155
293.206
293.155
293.15
293.151
293.15
293.15
293.151
293.151
293.155
293.21
293.155
293.15
293.151
293.15
293.151
293.152
293.151
293.157
293.221
293.157
293.151
293.151
293.15
293.151
293.152
293.152
293.16
293.247
293.16
293.152
293.152
293.151
293.152
293.153
293.155
293.168
293.302
293.167
293.154
293.152
293.151
293.153
293.154
293.159
293.187
293.415
293.187
293.158
293.153
293.152
293.154
293.157
293.169
293.237
293.631
293.236
293.168
293.156
293.154
293.157
293.162
293.191
293.347
294.016
293.347
293.19
293.161
293.156
293.165
293.177
293.242
293.575
294.67
293.575
293.241
293.176
293.164
293.184
293.214
293.355
294.014
295.731
294.014
293.354
293.212
293.183
293.232
293.301
293.596
294.806
297.39
294.805
293.595
293.3
293.23
293.346
293.498
294.083
296.172
299.888
296.171
294.081
293.496
293.344
293.603
293.916
294.998
298.357
303.46
298.356
294.997
293.914
293.601
294.125
294.731
296.655
301.934
308.741
301.932
296.653
294.728
294.123
295.279
296.275
299.54
306.682
313.657
306.681
299.538
296.273
295.276
296.581
298.71
303.289
313.725
328.319
313.723
303.287
298.707
296.578
299.46
302.069
311.858
341.57
371.831
341.569
311.856
302.065
299.457
306.172
307.185
325.043
367.106
391.936
367.106
325.041
307.182
306.168
313.957
313.863
336.949
379.743
397.224
379.742
336.947
313.86
313.953
321.617
321.626
346.962
385.98
398.373
385.979
346.959
321.623
321.613
329.35
330.326
356.187
390.102
398.79
390.101
356.184
330.322
329.346
337.609
340.01
365.5
393.904
399.442
393.903
365.497
340.006
337.605
346.724
350.756
375.348
398.045
400.621
398.044
375.345
350.752
346.72
356.873
362.614
385.911
402.747
402.416
402.746
385.908
362.61
356.869
368.127
375.592
397.245
408.11
404.901
408.109
397.242
375.587
368.123
380.471
389.652
409.339
414.218
408.183
414.216
409.336
389.648
380.466
393.817
404.769
422.289
421.369
412.647
421.367
422.286
404.764
393.812
407.976
420.713
435.798
429.755
418.65
429.753
435.795
420.708
407.971
422.69
437.989
452.312
442.883
430.323
442.881
452.308
437.984
422.685
437.548
453.991
463.74
455.469
443.054
455.467
463.737
453.987
437.543
452.078
475.274
515.892
523.703
520.23
523.701
515.888
475.27
452.073
466.327
487.444
534.824
550.586
549.498
550.584
534.821
487.44
466.322
482.907
490.817
510.255
508.26
501.95
508.259
510.251
490.812
482.901
536.177
536.227
525.486
470.6
422.647
470.598
525.482
536.223
536.174
293.15
293.15
293.151
293.149
293.163
293.149
293.151
293.15
293.15
293.15
293.15
293.151
293.149
293.165
293.149
293.151
293.15
293.15
293.15
293.151
293.151
293.15
293.172
293.15
293.151
293.15
293.15
293.151
293.151
293.152
293.15
293.187
293.15
293.152
293.151
293.15
293.151
293.152
293.153
293.152
293.214
293.152
293.153
293.151
293.151
293.152
293.153
293.155
293.158
293.265
293.158
293.155
293.152
293.151
293.153
293.154
293.159
293.173
293.358
293.173
293.158
293.154
293.152
293.155
293.157
293.167
293.209
293.526
293.209
293.166
293.156
293.154
293.16
293.165
293.186
293.292
293.825
293.291
293.186
293.164
293.158
293.173
293.184
293.233
293.466
294.339
293.466
293.232
293.183
293.171
293.205
293.231
293.338
293.819
295.21
293.818
293.337
293.23
293.203
293.284
293.346
293.58
294.498
296.606
294.498
293.579
293.344
293.282
293.47
293.602
294.054
295.686
298.834
295.685
294.052
293.601
293.467
293.859
294.125
295.126
298.245
302.68
298.244
295.125
294.123
293.856
294.638
295.278
297.023
300.283
304.843
300.282
297.022
295.276
294.635
295.989
296.58
299.174
318.618
354.59
318.617
299.172
296.578
295.985
297.604
299.459
320.204
375.17
399.712
375.169
320.202
299.457
297.601
299.886
306.17
345.036
397.265
401.879
397.264
345.035
306.168
299.883
303.368
313.956
359.426
402.861
402.38
402.861
359.425
313.953
303.365
308.117
321.616
367.295
403.552
402.337
403.552
367.294
321.613
308.113
314.101
329.349
372.56
402.96
402.076
402.959
372.559
329.346
314.098
321.348
337.608
377.214
402.193
401.73
402.192
377.213
337.605
321.344
329.919
346.723
382.113
401.626
401.368
401.625
382.111
346.72
329.915
339.875
356.872
387.586
401.394
401.037
401.394
387.585
356.869
339.871
351.242
368.126
393.753
401.565
400.778
401.565
393.751
368.123
351.238
363.994
380.47
400.62
402.173
400.624
402.173
400.619
380.466
363.99
378.036
393.816
408.149
403.286
400.659
403.285
408.147
393.812
378.032
393.196
407.975
416.139
404.815
400.78
404.815
416.137
407.971
393.192
409.205
422.689
424.799
407.525
401.875
407.525
424.797
422.685
409.2
425.761
437.547
432.966
409.675
401.768
409.674
432.965
437.543
425.757
442.369
452.077
444.193
419.367
410.382
419.366
444.191
452.074
442.364
460.177
466.326
454.43
426.491
415.473
426.491
454.429
466.323
460.173
481.262
482.905
462.634
421.433
404.395
421.433
462.632
482.902
481.257
537.606
536.177
515.152
453.05
406.525
453.049
515.149
536.174
537.605
)
;

boundaryField
{
    injectionXMinus
    {
        type            uniformFixedValue;
        uniformValue    uniform 400;
        value           uniform 400;
    }
    injectionXPlus
    {
        type            uniformFixedValue;
        uniformValue    uniform 400;
        value           uniform 400;
    }
    injectionYMinus
    {
        type            uniformFixedValue;
        uniformValue    uniform 400;
        value           uniform 400;
    }
    injectionYPlus
    {
        type            uniformFixedValue;
        uniformValue    uniform 400;
        value           uniform 400;
    }
    inletXMinus
    {
        type            uniformFixedValue;
        uniformValue    uniform 293.15;
        value           uniform 293.15;
    }
    inletXPlus
    {
        type            uniformFixedValue;
        uniformValue    uniform 293.15;
        value           uniform 293.15;
    }
    inletYMinus
    {
        type            uniformFixedValue;
        uniformValue    uniform 293.15;
        value           uniform 293.15;
    }
    inletYPlus
    {
        type            uniformFixedValue;
        uniformValue    uniform 293.15;
        value           uniform 293.15;
    }
    outlet
    {
        type            zeroGradient;
    }
    valve
    {
        type            zeroGradient;
    }
    walls
    {
        type            zeroGradient;
    }
}


// ************************************************************************* //
