/*--------------------------------*- C++ -*----------------------------------*\
  =========                 |
  \\      /  F ield         | OpenFOAM: The Open Source CFD Toolbox
   \\    /   O peration     | Website:  https://openfoam.org
    \\  /    A nd           | Version:  6
     \\/     M anipulation  |
\*---------------------------------------------------------------------------*/
FoamFile
{
    version     2.0;
    format      ascii;
    class       surfaceScalarField;
    location    "0.0001";
    object      phi;
}
// * * * * * * * * * * * * * * * * * * * * * * * * * * * * * * * * * * * * * //

dimensions      [0 3 -1 0 0 0 0];

internalField   nonuniform List<scalar> 
2752
(
-3.16767e-11
3.90625e-05
1.01985e-11
-7.32739e-11
3.90625e-05
6.3489e-12
-1.06673e-10
3.90625e-05
3.46448e-12
-1.19441e-10
3.90625e-05
7.05593e-13
-1.11716e-10
3.90625e-05
-1.76125e-12
-8.51263e-11
3.90625e-05
-3.51909e-12
-4.53495e-11
3.90625e-05
-4.12043e-12
3.90625e-05
-2.87091e-12
-3.5583e-11
3.90625e-05
8.45839e-12
-7.77253e-11
3.90625e-05
5.55259e-12
-1.10387e-10
3.90625e-05
3.4773e-12
-1.22455e-10
3.90625e-05
1.49938e-12
-1.13525e-10
3.90625e-05
-2.73843e-13
-8.49795e-11
3.90625e-05
-1.54286e-12
-4.39595e-11
3.90625e-05
-1.95089e-12
3.90625e-05
-1.02322e-12
-3.51131e-11
3.90625e-05
8.27549e-12
-7.64304e-11
3.90625e-05
5.55544e-12
-1.08172e-10
3.90625e-05
3.75718e-12
-1.19655e-10
3.90625e-05
2.03064e-12
-1.10656e-10
3.90625e-05
4.41142e-13
-8.26353e-11
3.90625e-05
-7.51633e-13
-4.2673e-11
3.90625e-05
-1.21229e-12
3.90625e-05
-4.99596e-13
-3.34572e-11
3.90625e-05
7.89323e-12
-7.29149e-11
3.90625e-05
5.31363e-12
-1.0313e-10
3.90625e-05
3.72545e-12
-1.14001e-10
3.90625e-05
2.18938e-12
-1.05473e-10
3.90625e-05
7.50927e-13
-7.89481e-11
3.90625e-05
-3.57079e-13
-4.095e-11
3.90625e-05
-8.37414e-13
3.90625e-05
-3.2178e-13
-3.1417e-11
3.90624e-05
7.06622e-12
-6.81012e-11
3.90624e-05
4.74815e-12
-9.60575e-11
3.90624e-05
3.37483e-12
-1.06132e-10
3.90624e-05
2.02749e-12
-9.83044e-11
3.90625e-05
7.51091e-13
-7.38418e-11
3.90625e-05
-2.44319e-13
-3.85255e-11
3.90625e-05
-7.01947e-13
3.90625e-05
-3.31493e-13
-2.92017e-11
3.90623e-05
5.9207e-12
-6.2437e-11
3.90623e-05
3.97496e-12
-8.75496e-11
3.90623e-05
2.81419e-12
-9.66214e-11
3.90623e-05
1.65196e-12
-8.95434e-11
3.90624e-05
5.43328e-13
-6.7427e-11
3.90625e-05
-3.22815e-13
-3.53278e-11
3.90625e-05
-7.25474e-13
3.90625e-05
-4.27667e-13
-2.67911e-11
3.90623e-05
4.7123e-12
-5.61981e-11
3.90623e-05
3.18323e-12
-7.81616e-11
3.90623e-05
2.21725e-12
-8.6095e-11
3.90623e-05
1.22799e-12
-7.97395e-11
3.90623e-05
2.81553e-13
-6.00595e-11
3.90624e-05
-4.54407e-13
-3.14981e-11
3.90624e-05
-7.87739e-13
3.90625e-05
-5.06834e-13
-2.40824e-11
3.90623e-05
3.69576e-12
-4.95808e-11
3.90623e-05
2.54414e-12
-6.8405e-11
3.90623e-05
1.74049e-12
-7.51839e-11
3.90623e-05
9.01687e-13
-6.95251e-11
3.90623e-05
9.85505e-14
-5.22652e-11
3.90623e-05
-5.22409e-13
-2.73461e-11
3.90623e-05
-7.92005e-13
3.90624e-05
-5.07892e-13
-2.10393e-11
3.90623e-05
3.00786e-12
-4.27937e-11
3.90623e-05
2.13324e-12
-5.87368e-11
3.90623e-05
1.45476e-12
-6.44554e-11
3.90623e-05
7.40634e-13
-5.9499e-11
3.90623e-05
5.64758e-14
-4.45934e-11
3.90623e-05
-4.72646e-13
-2.32328e-11
3.90623e-05
-6.97519e-13
3.90623e-05
-4.24262e-13
-1.77597e-11
3.90623e-05
2.62981e-12
-3.60791e-11
3.90623e-05
1.91476e-12
-4.95088e-11
3.90623e-05
1.33072e-12
-5.43159e-11
3.90623e-05
7.19072e-13
-5.00875e-11
3.90623e-05
1.32145e-13
-3.74486e-11
3.90623e-05
-3.2605e-13
-1.9437e-11
3.90623e-05
-5.26919e-13
3.90623e-05
-2.96521e-13
-1.44506e-11
3.90623e-05
2.418e-12
-2.9668e-11
3.90623e-05
1.77629e-12
-4.09152e-11
3.90623e-05
1.27173e-12
-4.49484e-11
3.90623e-05
7.51089e-13
-4.14659e-11
3.90623e-05
2.50121e-13
-3.09949e-11
3.90623e-05
-1.47929e-13
-1.60747e-11
3.90623e-05
-3.37234e-13
3.90623e-05
-1.77864e-13
-1.13375e-11
3.90623e-05
2.18869e-12
-2.37121e-11
3.90623e-05
1.59076e-12
-3.29696e-11
3.90623e-05
1.16683e-12
-3.63066e-11
3.90623e-05
7.36837e-13
-3.35565e-11
3.90623e-05
3.21668e-13
-2.51484e-11
3.90623e-05
-1.4652e-14
-1.30881e-11
3.90623e-05
-1.91113e-13
3.90623e-05
-1.1091e-13
-8.56188e-12
3.90623e-05
1.80645e-12
-1.82284e-11
3.90623e-05
1.27849e-12
-2.55298e-11
3.90623e-05
9.48391e-13
-2.81777e-11
3.90623e-05
6.1772e-13
-2.6113e-11
3.90623e-05
2.97624e-13
-1.96645e-11
3.90623e-05
3.41003e-14
-1.03064e-11
3.90623e-05
-1.1627e-13
3.90623e-05
-9.83836e-14
-6.1241e-12
3.90623e-05
1.24052e-12
-1.3094e-11
3.90623e-05
8.41077e-13
-1.83601e-11
3.90623e-05
6.18264e-13
-2.02785e-11
3.90623e-05
3.96925e-13
-1.88348e-11
3.90623e-05
1.83025e-13
-1.42575e-11
3.90623e-05
6.20906e-15
-7.53288e-12
3.90623e-05
-9.936e-14
3.90623e-05
-1.11205e-13
-3.86499e-12
3.90623e-05
5.83916e-13
-8.07341e-12
3.90623e-05
3.6882e-13
-1.12087e-11
3.90623e-05
2.57538e-13
-1.23581e-11
3.90623e-05
1.48012e-13
-1.14853e-11
3.90623e-05
4.39106e-14
-8.72253e-12
3.90623e-05
-4.05948e-14
-4.63506e-12
3.90623e-05
-9.0038e-14
3.90623e-05
-1.01269e-13
-1.45344e-12
7.68272e-14
-2.85743e-12
3.97652e-14
-3.87045e-12
1.86309e-14
-4.24992e-12
-1.74193e-15
-3.94323e-12
-2.01657e-14
-2.992e-12
-3.40449e-14
-1.58949e-12
-4.06058e-14
-4.24949e-14
-3.64346e-11
3.90625e-05
7.4495e-12
-7.8912e-11
3.90625e-05
4.9214e-12
-1.11723e-10
3.90625e-05
3.12748e-12
-1.23901e-10
3.90625e-05
1.49126e-12
-1.14884e-10
3.90625e-05
7.34719e-14
-8.59913e-11
3.90625e-05
-9.14002e-13
-4.44569e-11
3.90625e-05
-1.22895e-12
3.90625e-05
-6.23864e-13
-3.91795e-11
3.90625e-05
6.31226e-12
-8.19119e-11
3.90625e-05
4.45133e-12
-1.14075e-10
3.90625e-05
3.22893e-12
-1.25688e-10
3.90625e-05
2.11928e-12
-1.15772e-10
3.90625e-05
1.1283e-12
-8.54908e-11
3.90625e-05
3.89205e-13
-4.31923e-11
3.90625e-05
9.91711e-14
3.90625e-05
4.01169e-13
-3.84361e-11
3.90625e-05
5.93845e-12
-8.01855e-11
3.90625e-05
4.22195e-12
-1.1143e-10
3.90625e-05
3.18738e-12
-1.22573e-10
3.90625e-05
2.23988e-12
-1.12768e-10
3.90625e-05
1.363e-12
-8.32516e-11
3.90625e-05
6.68878e-13
-4.21298e-11
3.90625e-05
3.34845e-13
3.90625e-05
5.24791e-13
-3.65788e-11
3.90625e-05
5.4448e-12
-7.63371e-11
3.90625e-05
3.85112e-12
-1.06042e-10
3.90625e-05
2.9451e-12
-1.16644e-10
3.90625e-05
2.10267e-12
-1.0744e-10
3.90625e-05
1.30435e-12
-7.96391e-11
3.90625e-05
6.54579e-13
-4.06107e-11
3.90625e-05
3.0976e-13
3.90625e-05
4.06875e-13
-3.42224e-11
3.90624e-05
4.75502e-12
-7.11227e-11
3.90624e-05
3.35998e-12
-9.86062e-11
3.90624e-05
2.57175e-12
-1.08469e-10
3.90624e-05
1.81848e-12
-1.00069e-10
3.90625e-05
1.09229e-12
-7.4528e-11
3.90625e-05
4.93444e-13
-3.8322e-11
3.90625e-05
1.59245e-13
3.90625e-05
1.94122e-13
-3.1582e-11
3.90623e-05
3.98103e-12
-6.50022e-11
3.90623e-05
2.8418e-12
-8.97289e-11
3.90623e-05
2.16198e-12
-9.86327e-11
3.90623e-05
1.48811e-12
-9.10658e-11
3.90624e-05
8.30438e-13
-6.80298e-11
3.90625e-05
2.85034e-13
-3.51718e-11
3.90625e-05
-2.69281e-14
3.90625e-05
-2.04219e-14
-2.87e-11
3.90623e-05
3.26573e-12
-5.82989e-11
3.90623e-05
2.38891e-12
-7.999e-11
3.90623e-05
1.80294e-12
-8.77882e-11
3.90623e-05
1.19976e-12
-8.10107e-11
3.90623e-05
6.05969e-13
-6.05326e-11
3.90624e-05
1.11673e-13
-3.13237e-11
3.90624e-05
-1.74839e-13
3.90625e-05
-1.74138e-13
-2.55565e-11
3.90623e-05
2.71228e-12
-5.12673e-11
3.90623e-05
2.051e-12
-6.9927e-11
3.90623e-05
1.53837e-12
-7.65946e-11
3.90623e-05
9.9508e-13
-7.05705e-11
3.90623e-05
4.57155e-13
-5.26095e-11
3.90623e-05
7.02578e-15
-2.71339e-11
3.90623e-05
-2.57416e-13
3.90624e-05
-2.55172e-13
-2.21787e-11
3.90623e-05
2.33722e-12
-4.41549e-11
3.90623e-05
1.81425e-12
-6.0008e-11
3.90623e-05
1.35537e-12
-6.56337e-11
3.90623e-05
8.63409e-13
-6.03651e-11
3.90623e-05
3.74762e-13
-4.4847e-11
3.90623e-05
-3.75242e-14
-2.3006e-11
3.90623e-05
-2.85106e-13
3.90623e-05
-2.86502e-13
-1.8686e-11
3.90623e-05
2.07967e-12
-3.72107e-11
3.90623e-05
1.62036e-12
-5.0581e-11
3.90623e-05
1.20326e-12
-5.53103e-11
3.90623e-05
7.5895e-13
-5.08216e-11
3.90623e-05
3.17466e-13
-3.76631e-11
3.90623e-05
-5.86539e-14
-1.92405e-11
3.90623e-05
-2.91875e-13
3.90623e-05
-3.07141e-13
-1.5257e-11
3.90623e-05
1.83975e-12
-3.06374e-11
3.90623e-05
1.40147e-12
-4.182e-11
3.90623e-05
1.0265e-12
-4.57891e-11
3.90623e-05
6.34142e-13
-4.20982e-11
3.90623e-05
2.44916e-13
-3.12089e-11
3.90623e-05
-8.99306e-14
-1.5947e-11
3.90623e-05
-3.05703e-13
3.90623e-05
-3.41752e-13
-1.20611e-11
3.90623e-05
1.53233e-12
-2.45427e-11
3.90623e-05
1.11373e-12
-3.37152e-11
3.90623e-05
7.91391e-13
-3.70013e-11
3.90623e-05
4.60403e-13
-3.40928e-11
3.90623e-05
1.33043e-13
-2.5371e-11
3.90623e-05
-1.50543e-13
-1.30417e-11
3.90623e-05
-3.40251e-13
3.90623e-05
-3.94481e-13
-9.18253e-12
3.90623e-05
1.12576e-12
-1.89011e-11
3.90623e-05
7.59105e-13
-2.61044e-11
3.90623e-05
5.0549e-13
-2.87147e-11
3.90623e-05
2.48432e-13
-2.6538e-11
3.90623e-05
-4.95937e-15
-1.9875e-11
3.90623e-05
-2.25162e-13
-1.03222e-11
3.90623e-05
-3.76567e-13
3.90623e-05
-4.36083e-13
-6.58574e-12
3.90623e-05
6.58479e-13
-1.35692e-11
3.90623e-05
3.87348e-13
-1.87461e-11
3.90623e-05
2.15323e-13
-2.06387e-11
3.90623e-05
4.18266e-14
-1.91232e-11
3.90623e-05
-1.28223e-13
-1.44172e-11
3.90623e-05
-2.75162e-13
-7.57144e-12
3.90623e-05
-3.76845e-13
3.90623e-05
-4.24405e-13
-4.11212e-12
3.90623e-05
2.30538e-13
-8.31859e-12
3.90623e-05
8.74906e-14
-1.13992e-11
3.90623e-05
-2.97656e-16
-1.25329e-11
3.90623e-05
-8.86357e-14
-1.16229e-11
3.90623e-05
-1.74079e-13
-8.80062e-12
3.90623e-05
-2.46538e-13
-4.65882e-12
3.90623e-05
-2.95229e-13
3.90623e-05
-3.20441e-13
-1.49673e-12
-8.41313e-15
-2.90122e-12
-3.4257e-14
-3.90417e-12
-5.35071e-14
-4.27899e-12
-7.30484e-14
-3.9638e-12
-9.15602e-14
-3.0018e-12
-1.06734e-13
-1.59174e-12
-1.16279e-13
-1.22441e-13
-3.75024e-11
3.90625e-05
1.90284e-12
-8.00131e-11
3.90625e-05
1.52897e-12
-1.12492e-10
3.90625e-05
1.32953e-12
-1.24431e-10
3.90625e-05
1.21171e-12
-1.15132e-10
3.90625e-05
1.12883e-12
-8.59722e-11
3.90625e-05
1.04673e-12
-4.43443e-11
3.90625e-05
9.6514e-13
3.90625e-05
7.88485e-13
-3.98734e-11
3.90625e-05
1.59973e-12
-8.2573e-11
3.90625e-05
1.34035e-12
-1.14503e-10
3.90625e-05
1.24218e-12
-1.26015e-10
3.90625e-05
1.19705e-12
-1.15996e-10
3.90625e-05
1.14714e-12
-8.56255e-11
3.90625e-05
1.04994e-12
-4.32792e-11
3.90625e-05
9.00042e-13
3.90625e-05
6.03351e-13
-3.90284e-11
3.90625e-05
1.19652e-12
-8.07184e-11
3.90625e-05
9.76076e-13
-1.11754e-10
3.90625e-05
9.04816e-13
-1.22836e-10
3.90625e-05
8.71483e-13
-1.12981e-10
3.90625e-05
8.23496e-13
-8.34203e-11
3.90625e-05
7.25754e-13
-4.22512e-11
3.90625e-05
5.67808e-13
3.90625e-05
2.89272e-13
-3.70829e-11
3.90625e-05
8.39069e-13
-7.67849e-11
3.90625e-05
6.54677e-13
-1.06316e-10
3.90625e-05
5.87133e-13
-1.16878e-10
3.90625e-05
5.415e-13
-1.0764e-10
3.90625e-05
4.7557e-13
-7.98102e-11
3.90625e-05
3.66322e-13
-4.07383e-11
3.90625e-05
2.06198e-13
3.90625e-05
-5.4425e-14
-3.46209e-11
3.90624e-05
5.90177e-13
-7.14916e-11
3.90624e-05
4.45766e-13
-9.88532e-11
3.90624e-05
3.63662e-13
-1.08691e-10
3.90624e-05
2.8706e-13
-1.00265e-10
3.90625e-05
1.87725e-13
-7.46959e-11
3.90625e-05
5.56102e-14
-3.84455e-11
3.90625e-05
-1.10479e-13
3.90625e-05
-3.52513e-13
-3.18737e-11
3.90623e-05
4.77712e-13
-6.53013e-11
3.90623e-05
3.68323e-13
-8.99641e-11
3.90623e-05
2.62115e-13
-9.88557e-11
3.90623e-05
1.4662e-13
-9.12646e-11
3.90624e-05
7.49844e-15
-6.8198e-11
3.90625e-05
-1.54394e-13
-3.52909e-11
3.90625e-05
-3.33786e-13
3.90625e-05
-5.64348e-13
-2.89064e-11
3.90623e-05
4.72661e-13
-5.85477e-11
3.90623e-05
3.82986e-13
-8.0224e-11
3.90623e-05
2.502e-13
-8.80199e-11
3.90623e-05
9.70148e-14
-8.122e-11
3.90623e-05
-7.96906e-14
-6.0708e-11
3.90624e-05
-2.71352e-13
-3.14439e-11
3.90624e-05
-4.68242e-13
3.90625e-05
-6.95266e-13
-2.57152e-11
3.90623e-05
5.05223e-13
-5.1492e-11
3.90623e-05
4.13877e-13
-7.01675e-11
3.90623e-05
2.56073e-13
-7.68393e-11
3.90623e-05
7.16836e-14
-7.07943e-11
3.90623e-05
-1.34859e-13
-5.2797e-11
3.90623e-05
-3.50257e-13
-2.72596e-11
3.90623e-05
-5.61861e-13
3.90624e-05
-7.86985e-13
-2.23274e-11
3.90623e-05
4.95399e-13
-4.43781e-11
3.90623e-05
3.84637e-13
-6.02564e-11
3.90623e-05
2.07941e-13
-6.58885e-11
3.90623e-05
3.68828e-15
-6.06002e-11
3.90623e-05
-2.19534e-13
-4.50453e-11
3.90623e-05
-4.4607e-13
-2.31379e-11
3.90623e-05
-6.6209e-13
3.90623e-05
-8.78673e-13
-1.88476e-11
3.90623e-05
3.93032e-13
-3.74422e-11
3.90623e-05
2.56862e-13
-5.08309e-11
3.90623e-05
7.15578e-14
-5.55652e-11
3.90623e-05
-1.38145e-13
-5.10577e-11
3.90623e-05
-3.62038e-13
-3.78637e-11
3.90623e-05
-5.83953e-13
-1.93736e-11
3.90623e-05
-7.89922e-13
3.90623e-05
-9.86948e-13
-1.54323e-11
3.90623e-05
1.97202e-13
-3.08699e-11
3.90623e-05
4.41789e-14
-4.2057e-11
3.90623e-05
-1.3596e-13
-4.60283e-11
3.90623e-05
-3.35066e-13
-4.232e-11
3.90623e-05
-5.4286e-13
-3.13982e-11
3.90623e-05
-7.44022e-13
-1.6073e-11
3.90623e-05
-9.25777e-13
3.90623e-05
-1.09219e-12
-1.22335e-11
3.90623e-05
-4.51555e-14
-2.47572e-11
3.90623e-05
-1.9652e-13
-3.39229e-11
3.90623e-05
-3.57828e-13
-3.72083e-11
3.90623e-05
-5.32551e-13
-3.42843e-11
3.90623e-05
-7.10951e-13
-2.55347e-11
3.90623e-05
-8.79441e-13
-1.31505e-11
3.90623e-05
-1.02686e-12
3.90623e-05
-1.15544e-12
-9.32723e-12
3.90623e-05
-2.61812e-13
-1.90745e-11
3.90623e-05
-3.90447e-13
-2.62666e-11
3.90623e-05
-5.21277e-13
-2.88749e-11
3.90623e-05
-6.61048e-13
-2.66855e-11
3.90623e-05
-8.00888e-13
-2.00004e-11
3.90623e-05
-9.2938e-13
-1.04051e-11
3.90623e-05
-1.03742e-12
3.90623e-05
-1.12528e-12
-6.68416e-12
3.90623e-05
-3.78856e-13
-1.36852e-11
3.90623e-05
-4.69852e-13
-1.88535e-11
3.90623e-05
-5.62959e-13
-2.07444e-11
3.90623e-05
-6.61986e-13
-1.92195e-11
3.90623e-05
-7.59248e-13
-1.44977e-11
3.90623e-05
-8.4583e-13
-7.62359e-12
3.90623e-05
-9.14506e-13
3.90623e-05
-9.64645e-13
-4.15934e-12
3.90623e-05
-3.43848e-13
-8.37543e-12
3.90623e-05
-3.92392e-13
-1.14527e-11
3.90623e-05
-4.45736e-13
-1.25855e-11
3.90623e-05
-5.02711e-13
-1.16702e-11
3.90623e-05
-5.57741e-13
-8.83906e-12
3.90623e-05
-6.04905e-13
-4.68321e-12
3.90623e-05
-6.39548e-13
3.90623e-05
-6.61309e-13
-1.50541e-12
-1.46926e-13
-2.91334e-12
-1.59549e-13
-3.91702e-12
-1.76388e-13
-4.29194e-12
-1.94653e-13
-3.97541e-12
-2.12131e-13
-3.01108e-12
-2.26729e-13
-1.59757e-12
-2.36763e-13
-2.42248e-13
-3.7459e-11
3.90625e-05
-7.33243e-13
-7.99249e-11
3.90625e-05
-7.54323e-13
-1.12388e-10
3.90625e-05
-7.49426e-13
-1.24371e-10
3.90625e-05
-6.80755e-13
-1.15175e-10
3.90625e-05
-5.91077e-13
-8.61577e-11
3.90625e-05
-5.29548e-13
-4.45669e-11
3.90625e-05
-5.24016e-13
3.90625e-05
-6.26691e-13
-3.98334e-11
3.90625e-05
-1.00004e-12
-8.24795e-11
3.90625e-05
-1.03643e-12
-1.14392e-10
3.90625e-05
-1.06364e-12
-1.25958e-10
3.90625e-05
-1.0504e-12
-1.1606e-10
3.90625e-05
-1.02122e-12
-8.58619e-11
3.90625e-05
-1.00521e-12
-4.35586e-11
3.90625e-05
-1.01838e-12
3.90625e-05
-1.09576e-12
-3.89883e-11
3.90625e-05
-1.32818e-12
-8.06306e-11
3.90625e-05
-1.34542e-12
-1.11654e-10
3.90625e-05
-1.38218e-12
-1.22788e-10
3.90625e-05
-1.39491e-12
-1.13043e-10
3.90625e-05
-1.3965e-12
-8.36388e-11
3.90625e-05
-1.40034e-12
-4.25056e-11
3.90625e-05
-1.41399e-12
3.90625e-05
-1.4562e-12
-3.70465e-11
3.90625e-05
-1.52504e-12
-7.67153e-11
3.90625e-05
-1.53371e-12
-1.06245e-10
3.90625e-05
-1.58781e-12
-1.16856e-10
3.90625e-05
-1.63408e-12
-1.07715e-10
3.90625e-05
-1.67609e-12
-8.00192e-11
3.90625e-05
-1.71431e-12
-4.0973e-11
3.90625e-05
-1.74898e-12
3.90625e-05
-1.78581e-12
-3.45967e-11
3.90624e-05
-1.5603e-12
-7.1457e-11
3.90624e-05
-1.57302e-12
-9.88314e-11
3.90624e-05
-1.6568e-12
-1.08714e-10
3.90624e-05
-1.74636e-12
-1.00367e-10
3.90625e-05
-1.83647e-12
-7.49063e-11
3.90625e-05
-1.91575e-12
-3.86665e-11
3.90625e-05
-1.97572e-12
3.90625e-05
-2.01707e-12
-3.18683e-11
3.90623e-05
-1.45172e-12
-6.53105e-11
3.90623e-05
-1.48036e-12
-8.99995e-11
3.90623e-05
-1.59819e-12
-9.8933e-11
3.90623e-05
-1.73173e-12
-9.14051e-11
3.90624e-05
-1.86878e-12
-6.84217e-11
3.90625e-05
-1.98882e-12
-3.55077e-11
3.90625e-05
-2.07607e-12
3.90625e-05
-2.12717e-12
-2.89243e-11
3.90623e-05
-1.26899e-12
-5.86013e-11
3.90623e-05
-1.32328e-12
-8.03137e-11
3.90623e-05
-1.47279e-12
-8.81483e-11
3.90623e-05
-1.64386e-12
-8.13991e-11
3.90623e-05
-1.81942e-12
-6.09506e-11
3.90624e-05
-1.97342e-12
-3.1663e-11
3.90624e-05
-2.08564e-12
3.90625e-05
-2.14864e-12
-2.57588e-11
3.90623e-05
-1.10155e-12
-5.1586e-11
3.90623e-05
-1.18811e-12
-7.03016e-11
3.90623e-05
-1.36313e-12
-7.70086e-11
3.90623e-05
-1.5616e-12
-7.10041e-11
3.90623e-05
-1.76348e-12
-5.30544e-11
3.90623e-05
-1.94014e-12
-2.74802e-11
3.90623e-05
-2.06942e-12
3.90624e-05
-2.14005e-12
-2.23954e-11
3.90623e-05
-1.02119e-12
-4.45032e-11
3.90623e-05
-1.13987e-12
-6.04198e-11
3.90623e-05
-1.33099e-12
-6.60822e-11
3.90623e-05
-1.54397e-12
-6.08247e-11
3.90623e-05
-1.75694e-12
-4.53038e-11
3.90623e-05
-1.94112e-12
-2.33512e-11
3.90623e-05
-2.0744e-12
3.90623e-05
-2.14231e-12
-1.89339e-11
3.90623e-05
-1.04711e-12
-3.75854e-11
3.90623e-05
-1.1895e-12
-5.10062e-11
3.90623e-05
-1.38452e-12
-5.57644e-11
3.90623e-05
-1.59745e-12
-5.12782e-11
3.90623e-05
-1.80578e-12
-3.81059e-11
3.90623e-05
-1.98218e-12
-1.95676e-11
3.90623e-05
-2.10582e-12
3.90623e-05
-2.16042e-12
-1.55268e-11
3.90623e-05
-1.14219e-12
-3.10159e-11
3.90623e-05
-1.29303e-12
-4.22269e-11
3.90623e-05
-1.47836e-12
-4.62148e-11
3.90623e-05
-1.67655e-12
-4.25187e-11
3.90623e-05
-1.8656e-12
-3.1608e-11
3.90623e-05
-2.02105e-12
-1.62366e-11
3.90623e-05
-2.12423e-12
3.90623e-05
-2.15851e-12
-1.23246e-11
3.90623e-05
-1.22982e-12
-2.48919e-11
3.90623e-05
-1.37168e-12
-3.40737e-11
3.90623e-05
-1.53526e-12
-3.73689e-11
3.90623e-05
-1.70692e-12
-3.44492e-11
3.90623e-05
-1.86655e-12
-2.57019e-11
3.90623e-05
-1.99323e-12
-1.32774e-11
3.90623e-05
-2.07084e-12
3.90623e-05
-2.08369e-12
-9.40412e-12
3.90623e-05
-1.22787e-12
-1.9186e-11
3.90623e-05
-1.34591e-12
-2.63887e-11
3.90623e-05
-1.47879e-12
-2.90015e-11
3.90623e-05
-1.61586e-12
-2.68107e-11
3.90623e-05
-1.74014e-12
-2.01216e-11
3.90623e-05
-1.83478e-12
-1.04938e-11
3.90623e-05
-1.88627e-12
3.90623e-05
-1.88051e-12
-6.73997e-12
3.90623e-05
-1.07461e-12
-1.37666e-11
3.90623e-05
-1.15944e-12
-1.89417e-11
3.90623e-05
-1.25632e-12
-2.08334e-11
3.90623e-05
-1.35506e-12
-1.93041e-11
3.90623e-05
-1.44272e-12
-1.45749e-11
3.90623e-05
-1.50646e-12
-7.67754e-12
3.90623e-05
-1.53544e-12
3.90623e-05
-1.51791e-12
-4.19166e-12
3.90623e-05
-7.48718e-13
-8.42353e-12
3.90623e-05
-7.97112e-13
-1.15051e-11
3.90623e-05
-8.55737e-13
-1.26371e-11
3.90623e-05
-9.15484e-13
-1.17171e-11
3.90623e-05
-9.67814e-13
-8.87915e-12
3.90623e-05
-1.00429e-12
-4.7098e-12
3.90623e-05
-1.0173e-12
3.90623e-05
-9.98166e-13
-1.51569e-12
-2.73884e-13
-2.9292e-12
-2.88801e-13
-3.93444e-12
-3.09341e-13
-4.3087e-12
-3.30898e-13
-3.99003e-12
-3.50236e-13
-3.02316e-12
-3.64075e-13
-1.60553e-12
-3.69124e-13
-3.60426e-13
-3.74253e-11
3.90625e-05
-2.92219e-12
-7.98908e-11
3.90625e-05
-3.20151e-12
-1.12346e-10
3.90625e-05
-3.25433e-12
-1.24327e-10
3.90625e-05
-3.08755e-12
-1.15169e-10
3.90625e-05
-2.7746e-12
-8.62277e-11
3.90625e-05
-2.37362e-12
-4.46692e-11
3.90625e-05
-1.9367e-12
3.90625e-05
-1.55745e-12
-3.98364e-11
3.90625e-05
-3.41326e-12
-8.25063e-11
3.90625e-05
-3.66077e-12
-1.14425e-10
3.90625e-05
-3.71283e-12
-1.25987e-10
3.90625e-05
-3.57066e-12
-1.16103e-10
3.90625e-05
-3.2803e-12
-8.59481e-11
3.90625e-05
-2.87276e-12
-4.36563e-11
3.90625e-05
-2.35445e-12
3.90625e-05
-1.72616e-12
-3.89884e-11
3.90625e-05
-3.75629e-12
-8.06695e-11
3.90625e-05
-3.96818e-12
-1.11716e-10
3.90625e-05
-4.02423e-12
-1.22848e-10
3.90625e-05
-3.89949e-12
-1.13107e-10
3.90625e-05
-3.63016e-12
-8.37252e-11
3.90625e-05
-3.22866e-12
-4.25905e-11
3.90625e-05
-2.6813e-12
3.90625e-05
-1.97133e-12
-3.70516e-11
3.90625e-05
-3.88346e-12
-7.67717e-11
3.90625e-05
-4.08355e-12
-1.06338e-10
3.90625e-05
-4.1617e-12
-1.16953e-10
3.90625e-05
-4.08054e-12
-1.0781e-10
3.90625e-05
-3.86732e-12
-8.01202e-11
3.90625e-05
-3.52152e-12
-4.10574e-11
3.90625e-05
-3.01785e-12
3.90625e-05
-2.32684e-12
-3.46176e-11
3.90624e-05
-3.81424e-12
-7.15425e-11
3.90624e-05
-4.00746e-12
-9.89627e-11
3.90624e-05
-4.11684e-12
-1.08853e-10
3.90624e-05
-4.09099e-12
-1.00496e-10
3.90625e-05
-3.94721e-12
-7.50239e-11
3.90625e-05
-3.67427e-12
-3.87514e-11
3.90625e-05
-3.24143e-12
3.90625e-05
-2.61634e-12
-3.19123e-11
3.90623e-05
-3.57515e-12
-6.54303e-11
3.90623e-05
-3.76318e-12
-9.01699e-11
3.90623e-05
-3.90196e-12
-9.91111e-11
3.90623e-05
-3.92973e-12
-9.15677e-11
3.90624e-05
-3.8536e-12
-6.85573e-11
3.90625e-05
-3.65427e-12
-3.55956e-11
3.90625e-05
-3.29883e-12
3.90625e-05
-2.75891e-12
-2.89943e-11
3.90623e-05
-3.23803e-12
-5.87537e-11
3.90623e-05
-3.42368e-12
-8.05163e-11
3.90623e-05
-3.58543e-12
-8.83581e-11
3.90623e-05
-3.65858e-12
-8.15885e-11
3.90623e-05
-3.64075e-12
-6.11025e-11
3.90624e-05
-3.5071e-12
-3.17557e-11
3.90624e-05
-3.22398e-12
3.90625e-05
-2.76702e-12
-2.58534e-11
3.90623e-05
-2.89659e-12
-5.17647e-11
3.90623e-05
-3.08572e-12
-7.05259e-11
3.90623e-05
-3.26343e-12
-7.72382e-11
3.90623e-05
-3.37116e-12
-7.12098e-11
3.90623e-05
-3.39849e-12
-5.32159e-11
3.90623e-05
-3.31717e-12
-2.75751e-11
3.90623e-05
-3.09312e-12
3.90624e-05
-2.7021e-12
-2.2509e-11
3.90623e-05
-2.63042e-12
-4.46984e-11
3.90623e-05
-2.82791e-12
-6.0653e-11
3.90623e-05
-3.01445e-12
-6.63173e-11
3.90623e-05
-3.14412e-12
-6.10329e-11
3.90623e-05
-3.20066e-12
-4.54636e-11
3.90623e-05
-3.15455e-12
-2.34418e-11
3.90623e-05
-2.97134e-12
3.90623e-05
-2.62377e-12
-1.90573e-11
3.90623e-05
-2.46646e-12
-3.7784e-11
3.90623e-05
-2.67185e-12
-5.12343e-11
3.90623e-05
-2.85845e-12
-5.59904e-11
3.90623e-05
-2.99582e-12
-5.14746e-11
3.90623e-05
-3.06511e-12
-3.82517e-11
3.90623e-05
-3.03752e-12
-1.96465e-11
3.90623e-05
-2.87909e-12
3.90623e-05
-2.55824e-12
-1.56486e-11
3.90623e-05
-2.37174e-12
-3.12037e-11
3.90623e-05
-2.57731e-12
-4.24362e-11
3.90623e-05
-2.7538e-12
-4.64184e-11
3.90623e-05
-2.88461e-12
-4.26913e-11
3.90623e-05
-2.95162e-12
-3.17302e-11
3.90623e-05
-2.929e-12
-1.6298e-11
3.90623e-05
-2.78477e-12
3.90623e-05
-2.48482e-12
-1.24341e-11
3.90623e-05
-2.26855e-12
-2.50568e-11
3.90623e-05
-2.46109e-12
-3.42537e-11
3.90623e-05
-2.61726e-12
-3.75408e-11
3.90623e-05
-2.72988e-12
-3.45906e-11
3.90623e-05
-2.78432e-12
-2.57956e-11
3.90623e-05
-2.75921e-12
-1.33193e-11
3.90623e-05
-2.62636e-12
3.90623e-05
-2.3521e-12
-9.49375e-12
3.90623e-05
-2.0695e-12
-1.93196e-11
3.90623e-05
-2.23435e-12
-2.65325e-11
3.90623e-05
-2.36191e-12
-2.91361e-11
3.90623e-05
-2.44884e-12
-2.69177e-11
3.90623e-05
-2.48542e-12
-2.01863e-11
3.90623e-05
-2.45558e-12
-1.05173e-11
3.90623e-05
-2.3361e-12
3.90623e-05
-2.09704e-12
-6.80502e-12
3.90623e-05
-1.70523e-12
-1.3864e-11
3.90623e-05
-1.82966e-12
-1.90463e-11
3.90623e-05
-1.9229e-12
-2.09297e-11
3.90623e-05
-1.98194e-12
-1.93777e-11
3.90623e-05
-2.00131e-12
-1.4614e-11
3.90623e-05
-1.96993e-12
-7.68643e-12
3.90623e-05
-1.87013e-12
3.90623e-05
-1.67772e-12
-4.23023e-12
3.90623e-05
-1.1482e-12
-8.48269e-12
3.90623e-05
-1.22404e-12
-1.15691e-11
3.90623e-05
-1.28062e-12
-1.26954e-11
3.90623e-05
-1.31403e-12
-1.17601e-11
3.90623e-05
-1.32164e-12
-8.89874e-12
3.90623e-05
-1.29654e-12
-4.7104e-12
3.90623e-05
-1.22651e-12
3.90623e-05
-1.09361e-12
-1.52853e-12
-4.15295e-13
-2.94993e-12
-4.40084e-13
-3.95761e-12
-4.60222e-13
-4.33005e-12
-4.73102e-13
-4.00588e-12
-4.77514e-13
-3.02988e-12
-4.70449e-13
-1.60478e-12
-4.45838e-13
-3.91722e-13
-3.75734e-11
3.90625e-05
-4.54105e-12
-7.99898e-11
3.90625e-05
-5.58614e-12
-1.12303e-10
3.90625e-05
-5.54189e-12
-1.24165e-10
3.90625e-05
-4.91231e-12
-1.1492e-10
3.90625e-05
-3.89695e-12
-8.59323e-11
3.90625e-05
-2.65026e-12
-4.44418e-11
3.90625e-05
-1.31514e-12
3.90625e-05
-9.20453e-14
-3.99704e-11
3.90625e-05
-5.87905e-12
-8.26239e-11
3.90625e-05
-6.74819e-12
-1.14442e-10
3.90625e-05
-6.52285e-12
-1.25899e-10
3.90625e-05
-5.64777e-12
-1.15905e-10
3.90625e-05
-4.32504e-12
-8.5627e-11
3.90625e-05
-2.72198e-12
-4.33495e-11
3.90625e-05
-9.26877e-13
3.90625e-05
1.21232e-12
-3.90995e-11
3.90625e-05
-6.39036e-12
-8.0783e-11
3.90625e-05
-7.25946e-12
-1.11756e-10
3.90625e-05
-7.01748e-12
-1.22795e-10
3.90625e-05
-6.11821e-12
-1.12939e-10
3.90625e-05
-4.76098e-12
-8.34072e-11
3.90625e-05
-3.09451e-12
-4.22645e-11
3.90625e-05
-1.18996e-12
3.90625e-05
9.75281e-13
-3.71493e-11
3.90625e-05
-6.58327e-12
-7.68916e-11
3.90625e-05
-7.48784e-12
-1.06412e-10
3.90625e-05
-7.29199e-12
-1.1695e-10
3.90625e-05
-6.46573e-12
-1.07699e-10
3.90625e-05
-5.19427e-12
-7.98537e-11
3.90625e-05
-3.60605e-12
-4.07623e-11
3.90625e-05
-1.76276e-12
3.90625e-05
2.96227e-13
-3.47093e-11
3.90624e-05
-6.49893e-12
-7.16759e-11
3.90624e-05
-7.40288e-12
-9.90749e-11
3.90624e-05
-7.26898e-12
-1.08902e-10
3.90624e-05
-6.55508e-12
-1.00444e-10
3.90625e-05
-5.42336e-12
-7.48189e-11
3.90625e-05
-3.98357e-12
-3.85033e-11
3.90625e-05
-2.29211e-12
3.90625e-05
-4.19002e-13
-3.20048e-11
3.90623e-05
-6.1402e-12
-6.55795e-11
3.90623e-05
-6.98495e-12
-9.03158e-11
3.90623e-05
-6.90353e-12
-9.92052e-11
3.90623e-05
-6.31017e-12
-9.15663e-11
3.90624e-05
-5.33752e-12
-6.8408e-11
3.90625e-05
-4.07741e-12
-3.53923e-11
3.90625e-05
-2.58283e-12
3.90625e-05
-9.36398e-13
-2.90946e-11
3.90623e-05
-5.5687e-12
-5.89198e-11
3.90623e-05
-6.30341e-12
-8.06887e-11
3.90623e-05
-6.25838e-12
-8.84863e-11
3.90623e-05
-5.7792e-12
-8.16263e-11
3.90623e-05
-4.96642e-12
-6.09977e-11
3.90624e-05
-3.89352e-12
-3.15895e-11
3.90624e-05
-2.60652e-12
3.90625e-05
-1.18108e-12
-2.59688e-11
3.90623e-05
-4.9001e-12
-5.19484e-11
3.90623e-05
-5.50464e-12
-7.0717e-11
3.90623e-05
-5.48421e-12
-7.73886e-11
3.90623e-05
-5.10637e-12
-7.1273e-11
3.90623e-05
-4.44188e-12
-5.31414e-11
3.90623e-05
-3.54601e-12
-2.74353e-11
3.90623e-05
-2.45212e-12
3.90624e-05
-1.21359e-12
-2.26423e-11
3.90623e-05
-4.26537e-12
-4.4897e-11
3.90623e-05
-4.75384e-12
-6.08532e-11
3.90623e-05
-4.7529e-12
-6.64765e-11
3.90623e-05
-4.46031e-12
-6.11066e-11
3.90623e-05
-3.92334e-12
-4.54043e-11
3.90623e-05
-3.1808e-12
-2.33164e-11
3.90623e-05
-2.25055e-12
3.90623e-05
-1.15833e-12
-1.9204e-11
3.90623e-05
-3.7522e-12
-3.7989e-11
3.90623e-05
-4.16002e-12
-5.1432e-11
3.90623e-05
-4.17649e-12
-5.61451e-11
3.90623e-05
-3.95098e-12
-5.1546e-11
3.90623e-05
-3.51634e-12
-3.81961e-11
3.90623e-05
-2.89855e-12
-1.95276e-11
3.90623e-05
-2.101e-12
3.90623e-05
-1.127e-12
-1.57975e-11
3.90623e-05
-3.37288e-12
-3.14018e-11
3.90623e-05
-3.73691e-12
-4.26184e-11
3.90623e-05
-3.76798e-12
-4.65565e-11
3.90623e-05
-3.59159e-12
-4.27506e-11
3.90623e-05
-3.23454e-12
-3.16722e-11
3.90623e-05
-2.71475e-12
-1.61833e-11
3.90623e-05
-2.0263e-12
3.90623e-05
-1.16189e-12
-1.25713e-11
3.90623e-05
-3.06476e-12
-2.52329e-11
3.90623e-05
-3.40577e-12
-3.44094e-11
3.90623e-05
-3.44545e-12
-3.76541e-11
3.90623e-05
-3.30285e-12
-3.46335e-11
3.90623e-05
-3.00447e-12
-2.57356e-11
3.90623e-05
-2.56445e-12
-1.32118e-11
3.90623e-05
-1.97356e-12
3.90623e-05
-1.22559e-12
-9.60655e-12
3.90623e-05
-2.72353e-12
-1.94617e-11
3.90623e-05
-3.03884e-12
-2.6654e-11
3.90623e-05
-3.07823e-12
-2.92205e-11
3.90623e-05
-2.95916e-12
-2.69435e-11
3.90623e-05
-2.70859e-12
-2.01276e-11
3.90623e-05
-2.33959e-12
-1.04216e-11
3.90623e-05
-1.84469e-12
3.90623e-05
-1.22547e-12
-6.88564e-12
3.90623e-05
-2.24219e-12
-1.39651e-11
3.90623e-05
-2.50827e-12
-1.9131e-11
3.90623e-05
-2.53764e-12
-2.09859e-11
3.90623e-05
-2.4387e-12
-1.93901e-11
3.90623e-05
-2.2358e-12
-1.45627e-11
3.90623e-05
-1.94083e-12
-7.60861e-12
3.90623e-05
-1.5497e-12
3.90623e-05
-1.07204e-12
-4.27618e-12
3.90623e-05
-1.54775e-12
-8.54166e-12
3.90623e-05
-1.73113e-12
-1.16191e-11
3.90623e-05
-1.74356e-12
-1.2728e-11
3.90623e-05
-1.66966e-12
-1.17655e-11
3.90623e-05
-1.52585e-12
-8.86282e-12
3.90623e-05
-1.32052e-12
-4.65734e-12
3.90623e-05
-1.05184e-12
3.90623e-05
-7.31184e-13
-1.54294e-12
-6.0281e-13
-2.97016e-12
-6.6288e-13
-3.97685e-12
-6.63511e-13
-4.34468e-12
-6.3223e-13
-4.01163e-12
-5.7472e-13
-3.01959e-12
-4.93768e-13
-1.58596e-12
-3.86707e-13
-2.55828e-13
-3.79223e-11
3.90625e-05
-3.883e-12
-8.0044e-11
3.90625e-05
-5.33496e-12
-1.11837e-10
3.90625e-05
-5.1798e-12
-1.23339e-10
3.90625e-05
-4.33155e-12
-1.13872e-10
3.90625e-05
-3.02881e-12
-8.47991e-11
3.90625e-05
-1.47055e-12
-4.35989e-11
3.90625e-05
1.57313e-13
3.90625e-05
1.63297e-12
-4.02466e-11
3.90625e-05
-5.66052e-12
-8.25713e-11
3.90625e-05
-6.84829e-12
-1.13853e-10
3.90625e-05
-6.40217e-12
-1.24916e-10
3.90625e-05
-5.11573e-12
-1.14633e-10
3.90625e-05
-3.27191e-12
-8.41105e-11
3.90625e-05
-1.12439e-12
-4.20905e-11
3.90625e-05
1.17408e-12
3.90625e-05
3.90304e-12
-3.93569e-11
3.90625e-05
-6.16838e-12
-8.07165e-11
3.90625e-05
-7.40679e-12
-1.11151e-10
3.90625e-05
-6.92806e-12
-1.21776e-10
3.90625e-05
-5.59148e-12
-1.11591e-10
3.90625e-05
-3.68185e-12
-8.17506e-11
3.90625e-05
-1.44062e-12
-4.08643e-11
3.90625e-05
9.7663e-13
3.90625e-05
3.57678e-12
-3.7427e-11
3.90625e-05
-6.40254e-12
-7.68707e-11
3.90625e-05
-7.71561e-12
-1.05874e-10
3.90625e-05
-7.28725e-12
-1.16006e-10
3.90625e-05
-6.0271e-12
-1.06418e-10
3.90625e-05
-4.20302e-12
-7.82415e-11
3.90625e-05
-2.03393e-12
-3.93824e-11
3.90625e-05
3.21113e-13
3.90625e-05
2.74005e-12
-3.50008e-11
3.90624e-05
-6.37709e-12
-7.17097e-11
3.90624e-05
-7.70141e-12
-9.8633e-11
3.90624e-05
-7.34287e-12
-1.08079e-10
3.90624e-05
-6.21191e-12
-9.92967e-11
3.90625e-05
-4.54684e-12
-7.33476e-11
3.90625e-05
-2.544e-12
-3.72316e-11
3.90625e-05
-3.55341e-13
3.90625e-05
1.83223e-12
-3.22908e-11
3.90623e-05
-6.0645e-12
-6.56548e-11
3.90623e-05
-7.30065e-12
-8.99718e-11
3.90623e-05
-7.00168e-12
-9.85149e-11
3.90623e-05
-6.01641e-12
-9.0576e-11
3.90624e-05
-4.54459e-12
-6.71209e-11
3.90625e-05
-2.7586e-12
-3.42756e-11
3.90625e-05
-8.0097e-13
3.90625e-05
1.12924e-12
-2.9357e-11
3.90623e-05
-5.49747e-12
-5.90176e-11
3.90623e-05
-6.55598e-12
-8.04315e-11
3.90623e-05
-6.29976e-12
-8.79239e-11
3.90623e-05
-5.4589e-12
-8.0793e-11
3.90623e-05
-4.19125e-12
-5.98987e-11
3.90624e-05
-2.64304e-12
-3.06321e-11
3.90624e-05
-9.40242e-13
3.90625e-05
7.43915e-13
-2.61994e-11
3.90623e-05
-4.77812e-12
-5.20547e-11
3.90623e-05
-5.61737e-12
-7.05312e-11
3.90623e-05
-5.39366e-12
-7.69394e-11
3.90623e-05
-4.68745e-12
-7.05815e-11
3.90623e-05
-3.61806e-12
-5.22084e-11
3.90623e-05
-2.30456e-12
-2.6614e-11
3.90623e-05
-8.48827e-13
3.90624e-05
6.22487e-13
-2.28437e-11
3.90623e-05
-4.04676e-12
-4.50048e-11