/*--------------------------------*- C++ -*----------------------------------*\
  =========                 |
  \\      /  F ield         | OpenFOAM: The Open Source CFD Toolbox
   \\    /   O peration     | Website:  https://openfoam.org
    \\  /    A nd           | Version:  6
     \\/     M anipulation  |
\*---------------------------------------------------------------------------*/
FoamFile
{
    version     2.0;
    format      ascii;
    class       volScalarField;
    location    "0.2";
    object      T;
}
// * * * * * * * * * * * * * * * * * * * * * * * * * * * * * * * * * * * * * //

dimensions      [0 0 0 1 0 0 0];

internalField   nonuniform List<scalar> 
3029
(
277.792
271.396
303.987
243.836
349.311
243.836
303.987
271.396
277.792
314.492
319.391
341.823
269.051
378.61
269.051
341.823
319.391
314.492
255.866
262.102
295.261
265.262
374.086
265.261
295.26
262.102
255.866
258.816
255.065
291.242
271.163
377.439
271.163
291.241
255.064
258.815
270.379
261.445
295.308
284.793
392.027
284.793
295.307
261.444
270.379
283.531
273.859
305.783
305.9
415.008
305.898
305.781
273.858
283.53
300.804
292.725
324.112
334.504
443.712
334.502
324.11
292.723
300.803
324.718
319.079
350.639
369.762
476.123
369.76
350.636
319.077
324.716
355.872
352.721
384.369
410.047
510.656
410.044
384.365
352.718
355.87
393.236
392.248
423.45
453.376
545.984
453.373
423.445
392.244
393.233
434.886
435.615
465.73
497.835
581.166
497.831
465.725
435.609
434.882
478.641
480.643
509.131
541.781
615.025
541.778
509.125
480.637
478.637
522.453
525.356
551.936
584.476
650.065
584.472
551.929
525.35
522.448
564.623
567.984
592.364
624.399
678.114
624.395
592.357
567.976
564.618
604.192
607.617
629.84
664.964
765.449
664.96
629.832
607.609
604.185
641.217
642.63
655.568
677.183
757.194
677.179
655.561
642.621
641.209
679.425
683.567
697.389
592.93
600.015
592.927
697.381
683.557
679.417
716.535
726.21
725.13
494.419
518.775
494.416
725.122
726.2
716.526
745.941
755.335
728.007
453.005
462.197
453.003
728
755.325
745.931
768.574
775.807
732.184
452.323
473.895
452.321
732.177
775.797
768.564
786.602
791.621
739.567
465.807
489.179
465.805
739.562
791.612
786.593
801.347
804.412
748.176
484.711
504.52
484.709
748.171
804.403
801.337
813.424
814.777
756.731
506.738
521.844
506.736
756.726
814.767
813.414
823.123
822.983
764.682
531.107
542.077
531.105
764.678
822.974
823.115
830.603
829.191
771.773
557.117
564.994
557.115
771.769
829.183
830.595
835.954
833.448
777.656
583.809
589.747
583.807
777.653
833.44
835.945
839.28
835.736
782.136
610.287
615.518
610.286
782.132
835.729
839.272
840.912
835.693
783.324
633.815
639.435
633.814
783.32
835.688
840.905
842.455
834.49
786.328
658.235
665.875
658.234
786.326
834.485
842.448
847.595
832.23
773.829
661.596
669.638
661.595
773.828
832.226
847.589
869.391
853.507
829.758
743.44
759.738
743.439
829.757
853.504
869.385
903.878
896.022
942.914
877.58
892.61
877.579
942.913
896.021
903.873
930.658
918.031
854.935
808.071
814.268
808.071
854.935
918.029
930.652
979.974
991.257
625.948
396.493
361.963
396.493
625.948
991.258
979.974
271.396
254.066
315.256
260.703
314.503
260.703
315.256
254.066
271.396
319.391
349.654
416.489
306.328
335.613
306.328
416.488
349.654
319.391
262.102
289.364
361.973
313.463
350.167
313.462
361.972
289.363
262.102
255.065
264.853
331.759
319.112
368.004
319.111
331.758
264.851
255.064
261.445
263.701
325.03
332.556
391.866
332.555
325.028
263.7
261.443
273.859
274.995
333.588
354.667
421.081
354.665
333.585
274.993
273.857
292.725
295.43
353.141
384.243
454.159
384.241
353.137
295.428
292.722
319.079
324.039
381.22
419.48
489.572
419.477
381.216
324.035
319.076
352.721
359.708
415.717
458.409
525.964
458.407
415.712
359.703
352.717
392.248
400.697
454.495
499.134
562.184
499.131
454.489
400.692
392.243
435.614
444.91
495.478
540.002
597.357
539.998
495.471
444.904
435.608
480.643
490.232
536.8
579.657
630.667
579.653
536.793
490.225
480.636
525.356
534.767
576.85
617.2
662.638
617.195
576.842
534.759
525.348
567.984
576.793
614.063
651.221
689.534
651.216
614.055
576.784
567.975
607.617
614.905
646.68
681.005
729.477
681
646.671
614.896
607.607
642.629
647.851
671.417
690.959
695.029
690.954
671.408
647.841
642.619
683.566
679.863
690.842
675.72
859.756
675.716
690.833
679.853
683.555
726.21
709.018
703.103
654.503
995.331
654.498
703.095
709.007
726.198
755.335
730.435
710.667
644.569
964.235
644.563
710.659
730.424
755.323
775.806
747.499
719.999
649.818
944.988
649.813
719.992
747.488
775.795
791.621
762.332
731.079
661.853
933.794
661.847
731.073
762.321
791.61
804.412
775.485
742.62
676.125
924.681
676.119
742.613
775.475
804.401
814.776
787.008
753.806
691.046
915.82
691.04
753.8
786.999
814.765
822.982
796.89
764.266
706.134
906.886
706.129
764.26
796.881
822.972
829.191
805.131
773.844
721.27
898.279
721.265
773.838
805.122
829.182
833.448
811.599
782.313
736.398
890.452
736.394
782.308
811.591
833.439
835.737
816.249
789.824
751.357
883.67
751.353
789.82
816.241
835.729
835.694
816.916
793.136
765.025
876.131
765.021
793.132
816.91
835.688
834.49
816.147
801.808
772.955
864.337
772.952
801.805
816.143
834.485
832.23
784.527
729.164
735.265
791.439
735.263
729.161
784.524
832.226
853.508
783.869
922.724
783.738
849.175
783.737
922.724
783.867
853.505
896.023
810.793
997.597
819.643
879.232
819.642
997.598
810.792
896.021
918.032
883.893
1070.86
1020.37
1047.27
1020.37
1070.86
883.892
918.031
991.258
1130.84
1211.17
1154.64
1098.28
1154.64
1211.17
1130.84
991.26
303.987
315.256
350.911
331.241
370.399
331.24
350.909
315.256
303.987
341.823
416.489
454.607
381.081
388.428
381.08
454.606
416.488
341.823
295.26
361.972
440.468
402.418
407.968
402.417
440.466
361.971
295.26
291.242
331.758
420.085
417.104
431.115
417.103
420.083
331.757
291.241
295.308
325.029
415.25
436.023
458.719
436.021
415.247
325.027
295.307
305.783
333.587
424.747
460.91
489.799
460.907
424.743
333.584
305.78
324.112
353.14
444.596
490.464
522.851
490.461
444.591
353.136
324.109
350.639
381.22
471.487
522.845
556.478
522.842
471.482
381.215
350.635
384.368
415.717
502.86
556.407
589.583
556.404
502.854
415.711
384.364
423.449
454.494
536.657
589.833
621.361
589.829
536.65
454.487
423.444
465.729
495.477
571.198
622.119
651.25
622.114
571.189
495.47
465.722
509.13
536.799
605.109
652.501
678.82
652.496
605.1
536.791
509.123
551.935
576.849
637.234
680.384
703.986
680.379
637.225
576.84
551.926
592.362
614.062
666.38
704.975
725.616
704.971
666.37
614.051
592.353
629.838
646.678
691.188
725.535
747.293
725.531
691.178
646.668
629.828
655.567
671.416
709.809
738.591
751.35
738.586
709.8
671.405
655.556
697.387
690.841
725.86
750.668
811.453
750.664
725.851
690.83
697.376
725.128
703.102
739.098
762.516
914.263
762.51
739.089
703.091
725.116
728.006
710.666
747.948
769.519
951.033
769.513
747.938
710.656
727.994
732.183
719.998
756.293
777.057
962.559
777.052
756.285
719.989
732.172
739.567
731.079
765.153
785.602
965.06
785.596
765.145
731.069
739.556
748.176
742.62
774.133
794.332
963.34
794.326
774.124
742.61
748.166
756.731
753.806
782.793
802.698
958.978
802.693
782.785
753.797
756.721
764.682
764.267
790.956
810.568
952.838
810.563
790.948
764.258
764.673
771.774
773.844
798.587
818.083
945.647
818.078
798.58
773.837
771.766
777.658
782.313
806.135
825.98
938.486
825.975
806.129
782.307
777.65
782.138
789.825
813.153
834.327
931.768
834.323
813.147
789.819
782.131
783.326
793.137
827.562
852.205
933.14
852.202
827.557
793.131
783.321
786.331
801.81
837.34
862.174
929.051
862.172
837.336
801.805
786.327
773.833
729.165
1016.81
1070.63
1093.4
1070.63
1016.81
729.162
773.83
829.762
922.727
1805.3
1094.51
1207.16
1094.51
1805.31
922.726
829.76
942.918
997.599
997.601
942.917
854.939
1070.86
691.469
648.383
710.947
648.383
691.47
1070.86
854.938
625.951
1211.17
969.797
955.493
946.318
955.493
969.799
1211.17
625.952
868.478
881.848
882.207
881.848
868.48
869.981
871.773
876.575
871.773
869.983
878.772
872.425
877.658
872.425
878.775
883.189
873.776
878.951
873.776
883.192
884.536
874.639
880.078
874.64
884.538
884.444
875.079
881.031
875.079
884.447
883.741
875.245
881.818
875.246
883.744
882.772
875.226
882.434
875.227
882.774
881.684
875.079
882.905
875.08
881.687
880.473
874.759
883.152
874.76
880.475
879.43
874.499
883.401
874.5
879.432
877.466
873.659
883.213
873.66
877.468
243.835
260.703
331.24
422.804
515.873
422.8
331.238
260.702
243.835
269.051
306.327
381.08
451.64
527.338
451.636
381.078
306.327
269.051
265.261
313.462
402.417
476.126
541.422
476.122
402.414
313.461
265.261
271.163
319.111
417.103
499.312
558.707
499.308
417.099
319.109
271.162
284.793
332.555
436.021
524.405
579.225
524.4
436.017
332.553
284.792
305.899
354.665
460.907
551.655
601.962
551.65
460.903
354.662
305.897
334.503
384.241
490.461
580.098
625.702
580.093
490.456
384.237
334.5
369.761
419.478
522.842
608.64
649.439
608.635
522.836
419.473
369.757
410.045
458.407
556.404
636.418
672.463
636.413
556.397
458.402
410.041
453.374
499.132
589.83
662.828
694.309
662.822
589.822
499.125
453.369
497.832
539.999
622.116
687.462
714.674
687.457
622.107
539.992
497.826
541.779
579.655
652.497
710.033
733.343
710.028
652.489
579.647
541.772
584.474
617.197
680.381
730.307
750.169
730.302
680.372
617.188
584.465
624.397
651.218
704.973
747.991
764.972
747.986
704.964
651.209
624.388
664.962
681.002
725.533
762.972
778.224
762.967
725.524
680.992
664.953
677.181
690.956
738.589
775.25
790.339
775.245
738.579
690.946
677.171
592.928
675.717
750.666
790.338
811.565
790.333
750.656
675.708
592.92
494.417
654.5
762.513
806.22
839.43
806.215
762.503
654.491
494.411
453.003
644.566
769.517
816.385
856.838
816.379
769.507
644.558
452.999
452.321
649.816
777.056
823.471
866.835
823.465
777.047
649.808
452.318
465.806
661.851
785.6
829.424
873.103
829.419
785.591
661.843
465.802
484.71
676.124
794.331
834.792
877.369
834.788
794.322
676.115
484.706
506.737
691.044
802.697
839.692
880.33
839.688
802.689
691.036
506.733
531.107
706.133
810.568
844.259
882.421
844.255
810.56
706.125
531.103
557.118
721.269
818.082
848.806
884.121
848.802
818.076
721.262
557.114
583.81
736.398
825.979
854.124
886.3
854.121
825.973
736.391
583.807
610.289
751.358
834.327
861.438
890.311
861.435
834.321
751.351
610.286
633.818
765.026
852.205
876.266
900.506
876.264
852.201
765.021
633.815
658.238
772.956
862.175
896.912
916.151
896.91
862.172
772.952
658.235
661.6
735.267
1070.63
997.904
980.607
997.902
1070.63
735.265
661.598
743.445
783.741
1094.51
601.014
651.061
601.014
1094.51
783.74
743.443
877.585
819.645
819.645
877.585
808.076
1020.37
648.385
490.358
528.626
490.36
648.388
1020.37
808.076
396.497
1154.64
955.497
834.021
793.803
834.026
955.499
1154.64
396.496
881.851
812.302
784.684
812.306
881.852
871.776
790.116
764.776
790.118
871.776
872.428
781.734
755.165
781.736
872.427
873.779
779.443
751.693
779.445
873.778
874.642
779.326
750.955
779.327
874.642
875.082
779.907
751.318
779.909
875.082
875.248
780.699
752.127
780.701
875.248
875.229
781.557
753.152
781.559
875.229
875.082
782.426
754.282
782.427
875.082
874.762
783.375
755.616
783.377
874.762
874.502
784.129
756.689
784.131
874.502
873.661
785.727
759.132
785.729
873.662
349.31
314.502
370.396
515.87
643.267
515.865
370.394
314.501
349.309
378.609
335.611
388.426
527.335
646.907
527.329
388.423
335.61
378.608
374.084
350.165
407.965
541.419
650.469
541.413
407.962
350.163
374.082
377.437
368.001
431.112
558.704
656.045
558.698
431.108
367.999
377.435
392.024
391.864
458.716
579.222
664.656
579.215
458.711
391.861
392.022
415.005
421.079
489.795
601.959
675.962
601.952
489.79
421.075
415.002
443.71
454.156
522.847
625.698
689.127
625.691
522.84
454.151
443.706
476.12
489.568
556.473
649.435
703.319
649.427
556.466
489.563
476.115
510.653
525.96
589.579
672.459
717.883
672.452
589.571
525.953
510.648
545.98
562.18
621.357
694.306
732.332
694.298
621.349
562.173
545.974
581.162
597.352
651.245
714.671
746.302
714.663
651.237
597.345
581.156
615.021
630.662
678.814
733.34
759.505
733.332
678.806
630.654
615.014
650.06
662.633
703.981
750.166
771.722
750.158
703.972
662.625
650.053
678.109
689.529
725.612
764.97
782.839
764.962
725.603
689.52
678.101
765.443
729.472
747.288
778.222
793.32
778.214
747.279
729.464
765.435
757.189
695.025
751.346
790.337
804.759
790.329
751.336
695.017
757.18
600.014
859.752
811.45
811.563
823.485
811.556
811.439
859.743
600.01
518.774
995.326
914.26
839.428
844.37
839.421
914.249
995.319
518.774
462.198
964.231
951.029
856.837
857.646
856.83
951.019
964.225
462.197
473.895
944.985
962.555
866.833
865.232
866.827
962.545
944.979
473.895
489.178
933.793
965.057
873.102
870.038
873.095
965.048
933.786
489.178
504.52
924.681
963.338
877.367
873.512
877.361
963.33
924.674
504.519
521.845
915.82
958.977
880.329
876.202
880.324
958.969
915.813
521.844
542.079
906.886
952.838
882.421
878.411
882.415
952.83
906.88
542.077
564.996
898.281
945.647
884.121
880.578
884.116
945.641
898.275
564.993
589.75
890.456
938.487
886.3
883.561
886.296
938.481
890.451
589.748
615.521
883.675
931.77
890.312
888.829
890.308
931.764
883.67
615.519
639.439
876.137
933.143
900.507
899.797
900.504
933.137
876.133
639.437
665.88
864.343
929.054
916.153
916.27
916.151
929.05
864.339
665.879
669.644
791.445
1093.4
980.609
951.228
980.608
1093.4
791.443
669.643
759.745
849.181
1207.16
651.062
721.566
651.061
1207.16
849.18
759.745
892.618
879.237
879.236
892.619
814.276
1047.28
710.953
528.627
484.519
528.628
710.953
1047.28
814.277
361.967
1098.29
946.326
793.807
651.045
793.809
946.327
1098.29
361.967
882.216
784.688
664.397
784.69
882.216
876.584
764.781
654.051
764.782
876.584
877.667
755.17
647.846
755.172
877.667
878.96
751.698
646.597
751.699
878.959
880.087
750.96
648.118
750.961
880.086
881.04
751.322
650.951
751.324
881.039
881.826
752.131
654.405
752.133
881.826
882.442
753.156
658.208
753.157
882.442
882.913
754.286
662.173
754.287
882.912
883.159
755.62
666.543
755.621
883.159
883.409
756.693
670.131
756.694
883.408
883.221
759.136
677.44
759.137
883.22
243.835
260.702
331.238
422.797
515.863
422.796
331.238
260.702
243.835
269.051
306.328
381.078
451.634
527.328
451.632
381.078
306.327
269.051
265.261
313.462
402.415
476.119
541.411
476.117
402.414
313.461
265.261
271.162
319.11
417.1
499.305
558.696
499.303
417.099
319.109
271.162
284.792
332.553
436.018
524.397
579.214
524.395
436.016
332.552
284.791
305.897
354.663
460.904
551.646
601.95
551.644
460.902
354.662
305.896
334.5
384.238
490.457
580.089
625.689
580.088
490.455
384.236
334.498
369.757
419.473
522.837
608.631
649.425
608.63
522.835
419.472
369.755
410.042
458.402
556.398
636.409
672.45
636.407
556.397
458.401
410.039
453.369
499.127
589.824
662.818
694.296
662.816
589.822
499.126
453.366
497.827
539.994
622.109
687.452
714.661
687.449
622.107
539.992
497.824
541.773
579.648
652.491
710.023
733.33
710.02
652.488
579.647
541.769
584.467
617.19
680.374
730.299
750.157
730.294
680.371
617.188
584.462
624.389
651.211
704.966
747.983
764.961
747.977
704.962
651.21
624.385
664.955
680.995
725.526
762.964
778.212
762.958
725.522
680.993
664.949
677.174
690.949
738.582
775.242
790.328
775.236
738.578
690.946
677.168
592.923
675.712
750.659
790.331
811.555
790.325
750.655
675.708
592.919
494.414
654.495
762.506
806.213
839.42
806.207
762.502
654.492
494.41
453.001
644.561
769.511
816.377
856.829
816.372
769.506
644.558
452.999
452.32
649.811
777.05
823.464
866.826
823.459
777.045
649.807
452.317
465.804
661.847
785.595
829.419
873.095
829.414
785.59
661.843
465.801
484.709
676.12
794.325
834.788
877.361
834.782
794.321
676.116
484.706
506.736
691.041
802.693
839.689
880.323
839.683
802.689
691.037
506.733
531.105
706.131
810.565
844.256
882.415
844.251
810.56
706.127
531.103
557.116
721.268
818.081
848.803
884.116
848.8
818.077
721.265
557.114
583.809
736.398
825.979
854.123
886.297
854.119
825.975
736.395
583.807
610.288
751.359
834.328
861.438
890.309
861.434
834.324
751.356
610.286
633.818
765.028
852.208
876.268
900.506
876.265
852.204
765.026
633.816
658.238
772.959
862.179
896.914
916.152
896.912
862.176
772.958
658.237
661.601
735.271
1070.64
997.906
980.609
997.905
1070.63
735.27
661.6
743.447
783.745
1094.51
601.015
651.063
601.015
1094.51
783.744
743.446
877.588
819.649
819.649
877.589
808.08
1020.38
648.391
490.366
528.634
490.367
648.392
1020.38
808.08
396.498
1154.65
955.505
834.036
793.816
834.036
955.505
1154.65
396.498
881.857
812.315
784.694
812.316
881.857
871.782
790.127
764.786
790.127
871.781
872.434
781.745
755.175
781.745
872.433
873.785
779.453
751.703
779.453
873.784
874.648
779.335
750.964
779.336
874.647
875.088
779.917
751.327
779.917
875.087
875.254
780.708
752.136
780.709
875.253
875.235
781.567
753.16
781.567
875.234
875.088
782.435
754.29
782.435
875.087
874.768
783.384
755.624
783.385
874.767
874.508
784.138
756.697
784.138
874.507
873.667
785.736
759.14
785.737
873.666
303.987
315.256
350.909
331.237
370.393
331.237
350.909
315.256
303.987
341.823
416.487
454.605
381.077
388.421
381.077
454.605
416.487
341.823
295.26
361.971
440.465
402.413
407.96
402.413
440.465
361.971
295.26
291.241
331.756
420.082
417.098
431.106
417.098
420.081
331.756
291.241
295.306
325.026
415.245
436.016
458.709
436.016
415.244
325.026
295.306
305.78
333.583
424.741
460.901
489.788
460.901
424.74
333.582
305.779
324.108
353.135
444.588
490.454
522.839
490.454
444.587
353.134
324.108
350.634
381.214
471.478
522.834
556.465
522.835
471.478
381.212
350.633
384.362
415.709
502.85
556.394
589.57
556.396
502.851
415.707
384.361
423.442
454.485
536.646
589.819
621.347
589.821
536.648
454.483
423.441
465.721
495.468
571.185
622.105
651.235
622.107
571.187
495.465
465.719
509.122
536.789
605.095
652.486
678.804
652.488
605.098
536.787
509.119
551.925
576.838
637.22
680.369
703.97
680.371
637.222
576.835
551.922
592.353
614.05
666.366
704.961
725.601
704.962
666.368
614.048
592.35
629.828
646.666
691.174
725.521
747.278
725.522
691.176
646.664
629.825
655.557
671.404
709.796
738.577
751.335
738.578
709.797
671.401
655.553
697.377
690.83
725.847
750.655
811.439
750.655
725.848
690.827
697.373
725.119
703.092
739.086
762.502
914.248
762.502
739.087
703.089
725.114
727.997
710.656
747.936
769.506
951.018
769.506
747.936
710.653
727.992
732.175
719.99
756.283
777.046
962.546
777.045
756.283
719.986
732.17
739.56
731.071
765.144
785.591
965.049
785.59
765.143
731.068
739.555
748.169
742.613
774.125
794.323
963.33
794.321
774.123
742.609
748.164
756.725
753.8
782.786
802.691
958.969
802.688
782.785
753.796
756.72
764.677
764.261
790.95
810.563
952.831
810.56
790.948
764.258
764.673
771.769
773.84
798.582
818.078
945.642
818.076
798.58
773.837
771.765
777.654
782.311
806.132
825.977
938.482
825.975
806.131
782.307
777.65
782.135
789.824
813.151
834.326
931.766
834.324
813.15
789.821
782.131
783.324
793.137
827.562
852.206
933.14
852.204
827.561
793.135
783.321
786.331
801.812
837.342
862.178
929.053
862.176
837.341
801.809
786.328
773.833
729.168
1016.82
1070.64
1093.4
1070.64
1016.82
729.167
773.831
829.764
922.732
1805.31
1094.51
1207.17
1094.51
1805.32
922.733
829.764
942.923
997.607
997.608
942.922
854.945
1070.87
691.476
648.392
710.956
648.393
691.479
1070.87
854.944
625.955
1211.19
969.809
955.507
946.33
955.507
969.811
1211.18
625.955
868.49
881.859
882.219
881.859
868.489
869.993
871.783
876.587
871.783
869.991
878.785
872.435
877.67
872.435
878.783
883.202
873.786
878.963
873.785
883.199
884.548
874.649
880.09
874.649
884.545
884.456
875.089
881.043
875.089
884.454
883.753
875.255
881.829
875.255
883.751
882.784
875.236
882.446
875.236
882.781
881.696
875.089
882.916
875.089
881.693
880.484
874.769
883.162
874.768
880.482
879.441
874.509
883.412
874.508
879.439
877.476
873.668
883.224
873.668
877.474
271.396
254.066
315.256
260.702
314.5
260.702
315.256
254.066
271.396
319.39
349.653
416.488
306.327
335.609
306.327
416.487
349.653
319.39
262.102
289.363
361.971
313.46
350.162
313.46
361.971
289.362
262.102
255.064
264.851
331.756
319.109
367.998
319.108
331.756
264.851
255.064
261.443
263.699
325.026
332.552
391.86
332.552
325.025
263.699
261.443
273.857
274.992
333.583
354.661
421.074
354.661
333.582
274.991
273.856
292.721
295.426
353.135
384.236
454.15
384.236
353.134
295.425
292.721
319.076
324.034
381.213
419.471
489.562
419.472
381.212
324.033
319.075
352.716
359.701
415.709
458.4
525.952
458.401
415.707
359.7
352.715
392.242
400.689
454.485
499.123
562.172
499.125
454.483
400.688
392.241
435.607
444.902
495.467
539.989
597.344
539.991
495.465
444.9
435.606
480.635
490.222
536.788
579.644
630.653
579.646
536.787
490.22
480.633
525.347
534.756
576.837
617.186
662.624
617.188
576.835
534.753
525.344
567.974
576.781
614.049
651.207
689.52
651.209
614.048
576.779
567.971
607.606
614.893
646.665
680.99
729.463
680.992
646.664
614.89
607.603
642.618
647.838
671.403
690.944
695.016
690.946
671.401
647.835
642.615
683.554
679.85
690.828
675.707
859.743
675.708
690.827
679.847
683.551
726.198
709.005
703.09
654.491
995.319
654.492
703.088
709.002
726.195
755.323
730.422
710.654
644.558
964.225
644.557
710.653
730.42
755.32
775.795
747.487
719.988
649.808
944.98
649.808
719.987
747.484
775.792
791.61
762.321
731.069
661.844
933.787
661.843
731.068
762.317
791.607
804.402
775.475
742.611
676.117
924.675
676.116
742.61
775.472
804.399
814.768
786.999
753.798
691.039
915.815
691.037
753.797
786.997
814.764
822.975
796.882
764.26
706.128
906.881
706.127
764.259
796.88
822.972
829.186
805.125
773.838
721.266
898.277
721.264
773.838
805.122
829.183
833.443
811.594
782.309
736.396
890.452
736.394
782.308
811.592
833.441
835.733
816.246
789.823
751.357
883.673
751.356
789.822
816.244
835.731
835.693
816.916
793.136
765.027
876.136
765.026
793.136
816.915
835.691
834.492
816.149
801.811
772.959
864.343
772.958
801.81
816.148
834.49
832.233
784.531
729.168
735.271
791.447
735.271
729.168
784.53
832.232
853.513
783.875
922.734
783.746
849.184
783.746
922.734
783.874
853.512
896.03
810.801
997.609
819.651
879.241
819.651
997.609
810.801
896.03
918.039
883.902
1070.87
1020.38
1047.29
1020.38
1070.88
883.903
918.04
991.269
1130.86
1211.19
1154.65
1098.29
1154.65
1211.19
1130.86
991.271
277.792
271.396
303.987
243.835
349.309
243.835
303.987
271.396
277.792
314.492
319.391
341.823
269.051
378.607
269.051
341.823
319.391
314.492
255.866
262.102
295.26
265.261
374.082
265.261
295.26
262.102
255.866
258.815
255.064
291.24
271.162
377.434
271.162
291.24
255.063
258.815
270.379
261.443
295.306
284.791
392.021
284.791
295.306
261.443
270.378
283.53
273.857
305.78
305.896
415.002
305.896
305.779
273.856
283.53
300.803
292.721
324.108
334.499
443.705
334.498
324.107
292.721
300.802
324.715
319.075
350.634
369.756
476.115
369.755
350.633
319.074
324.714
355.869
352.716
384.362
410.039
510.647
410.039
384.361
352.715
355.867
393.231
392.242
423.442
453.367
545.974
453.366
423.441
392.24
393.23
434.88
435.607
465.72
497.825
581.155
497.824
465.719
435.606
434.879
478.634
480.635
509.121
541.77
615.014
541.769
509.12
480.633
478.632
522.445
525.347
551.924
584.464
650.053
584.463
551.923
525.344
522.443
564.615
567.973
592.351
624.386
678.101
624.385
592.349
567.971
564.613
604.183
607.606
629.827
664.951
765.435
664.95
629.825
607.603
604.18
641.208
642.617
655.555
677.17
757.18
677.169
655.553
642.615
641.204
679.415
683.554
697.374
592.92
600.01
592.919
697.373
683.551
679.411
716.525
726.197
725.116
494.411
518.773
494.411
725.114
726.194
716.521
745.93
755.322
727.994
452.999
462.197
452.999
727.993
755.32
745.927
768.563
775.794
732.172
452.318
473.894
452.317
732.171
775.792
768.56
786.593
791.61
739.557
465.802
489.178
465.802
739.556
791.607
786.59
801.338
804.401
748.166
484.707
504.519
484.707
748.166
804.399
801.334
813.416
814.767
756.722
506.734
521.844
506.734
756.722
814.764
813.412
823.116
822.974
764.675
531.104
542.077
531.104
764.674
822.972
823.114
830.598
829.185
771.768
557.115
564.995
557.114
771.767
829.183
830.595
835.949
833.443
777.652
583.808
589.749
583.808
777.652
833.441
835.947
839.277
835.733
782.133
610.288
615.52
610.288
782.133
835.731
839.275
840.91
835.693
783.324
633.817
639.439
633.817
783.324
835.691
840.909
842.454
834.491
786.331
658.239
665.881
658.239
786.331
834.49
842.453
847.596
832.233
773.833
661.602
669.645
661.602
773.834
832.232
847.595
869.393
853.512
829.764
743.448
759.748
743.448
829.766
853.512
869.393
903.882
896.03
942.923
877.59
892.622
877.59
942.924
896.031
903.882
930.662
918.04
854.945
808.082
814.28
808.082
854.946
918.04
930.662
979.985
991.271
625.957
396.499
361.969
396.499
625.957
991.273
979.988
)
;

boundaryField
{
    injectionXMinus
    {
        type            fixedValue;
        value           uniform 400;
    }
    injectionXPlus
    {
        type            fixedValue;
        value           uniform 400;
    }
    injectionYMinus
    {
        type            fixedValue;
        value           uniform 400;
    }
    injectionYPlus
    {
        type            fixedValue;
        value           uniform 400;
    }
    inletXMinus
    {
        type            fixedValue;
        value           uniform 293.15;
    }
    inletXPlus
    {
        type            fixedValue;
        value           uniform 293.15;
    }
    inletYMinus
    {
        type            fixedValue;
        value           uniform 293.15;
    }
    inletYPlus
    {
        type            fixedValue;
        value           uniform 293.15;
    }
    outlet
    {
        type            zeroGradient;
    }
    valve
    {
        type            zeroGradient;
    }
    walls
    {
        type            zeroGradient;
    }
}


// ************************************************************************* //
