/*--------------------------------*- C++ -*----------------------------------*\
  =========                 |
  \\      /  F ield         | OpenFOAM: The Open Source CFD Toolbox
   \\    /   O peration     | Website:  https://openfoam.org
    \\  /    A nd           | Version:  6
     \\/     M anipulation  |
\*---------------------------------------------------------------------------*/
FoamFile
{
    version     2.0;
    format      ascii;
    class       volScalarField;
    location    "0.3";
    object      T;
}
// * * * * * * * * * * * * * * * * * * * * * * * * * * * * * * * * * * * * * //

dimensions      [0 0 0 1 0 0 0];

internalField   nonuniform List<scalar> 
3029
(
278.18
272.102
304.061
245.591
362.076
245.59
304.061
272.101
278.18
314.206
319.043
341.267
270.767
391.628
270.767
341.267
319.043
314.206
256.162
262.594
295.323
268.276
389.739
268.276
295.322
262.594
256.162
259.287
256.055
290.39
276.887
398.82
276.887
290.389
256.054
259.287
269.939
261.846
293.085
296.861
422.245
296.86
293.084
261.844
269.938
282.869
274.877
306.156
330.483
456.847
330.481
306.154
274.875
282.868
305.29
300.382
335.508
378.272
499.245
378.269
335.504
300.379
305.288
343.584
342.669
382.423
437.215
546.265
437.211
382.419
342.665
343.582
398.099
400.558
442.813
501.959
594.821
501.954
442.807
400.554
398.096
463.687
468.244
509.769
566.859
642.112
566.854
509.762
468.238
463.683
532.92
538.355
576.467
627.632
686.44
627.626
576.458
538.348
532.913
598.954
604.471
637.776
681.433
725.386
681.427
637.766
604.462
598.946
656.959
662.081
690.773
731.129
774.174
731.122
690.763
662.07
656.95
704.461
708.711
733.181
763.942
777.396
763.936
733.171
708.7
704.451
742.402
743.116
760.764
850.098
1248.01
850.09
760.754
743.104
742.391
774.942
767.691
762.815
709.77
683.857
709.765
762.805
767.679
774.93
823.755
821.43
725.216
398.289
487.587
398.287
725.208
821.417
823.742
878.339
860.279
624.594
251.864
461.909
251.864
624.589
860.266
878.326
909.412
859.594
542.353
201.857
377.255
201.857
542.349
859.581
909.399
922.268
849.374
505.664
201.183
397.022
201.183
505.662
849.363
922.255
926.372
841.036
495.636
214.469
413.179
214.468
495.634
841.027
926.36
926.654
835.674
498.494
231.911
421.009
231.91
498.493
835.665
926.642
924.831
832.095
508.087
252.614
426.791
252.613
508.086
832.086
924.818
921.345
829.245
521.998
277.771
434.985
277.769
521.997
829.237
921.332
916.315
826.487
539.064
308.287
447.961
308.285
539.062
826.48
916.304
909.831
823.374
558.204
344.03
466.401
344.028
558.202
823.367
909.822
902.062
819.532
578.41
384.109
490.038
384.108
578.409
819.526
902.054
893.422
814.31
597.08
425.375
516.102
425.373
597.079
814.304
893.413
885.609
808.765
618.142
470.255
548.212
470.253
618.141
808.76
885.602
882.473
803.22
624.586
496.504
561.871
496.503
624.585
803.216
882.467
897.848
823.041
691.44
593.178
661.479
593.178
691.439
823.038
897.843
927.983
869.746
811.778
725.662
789.212
725.661
811.778
869.744
927.978
951.758
905.001
763.68
681.839
719.608
681.839
763.681
905
951.754
999.422
994.214
600.046
343.883
315.051
343.883
600.047
994.214
999.42
272.101
257.625
316.462
265.066
339.261
265.065
316.461
257.625
272.101
319.043
350.118
412.088
308.726
362.922
308.725
412.086
350.117
319.043
262.594
290.59
357.138
317.486
382.616
317.484
357.137
290.589
262.594
256.055
266.806
327.395
329.166
408.906
329.164
327.394
266.805
256.054
261.845
266.208
323.723
353.954
443.92
353.952
323.72
266.207
261.844
274.877
280.785
340.9
392.601
485.847
392.598
340.896
280.782
274.874
300.381
311.27
376.292
442.3
531.88
442.296
376.287
311.266
300.378
342.669
358.386
426.365
498.651
579.255
498.646
426.359
358.381
342.665
400.558
419.019
485.741
556.947
625.556
556.941
485.734
419.013
400.553
468.243
487.017
548.32
613.116
668.856
613.109
548.311
487.009
468.236
538.355
555.576
608.712
664.283
707.98
664.276
608.702
555.567
538.346
604.47
619.073
662.975
708.68
741.891
708.673
662.965
619.062
604.46
662.08
673.532
708.515
746.414
774.735
746.407
708.504
673.52
662.068
708.71
716.202
742.722
772.579
790.903
772.572
742.71
716.189
708.697
743.115
744.938
761.017
794.234
883.027
794.227
761.004
744.925
743.101
767.691
760.023
756.416
733.235
718.539
733.23
756.405
760.009
767.677
821.429
779.668
725.021
601.855
928.561
601.851
725.011
779.653
821.414
860.278
791.076
670.676
506.293
1057.37
506.289
670.669
791.063
860.262
859.593
785.244
626.798
455.416
902.4
455.412
626.792
785.23
859.577
849.373
776.874
605.475
443.756
832.944
443.752
605.469
776.862
849.359
841.036
771.561
599.321
449.558
803.195
449.554
599.317
771.55
841.023
835.674
769.247
601.286
462.374
786.884
462.369
601.281
769.237
835.661
832.095
768.814
607.778
478.979
775.789
478.974
607.774
768.805
832.084
829.245
769.439
617.307
498.858
767.979
498.853
617.303
769.43
829.235
826.488
770.614
629.196
522.101
763.355
522.097
629.192
770.607
826.479
823.375
771.825
642.846
548.765
762.358
548.761
642.842
771.818
823.366
819.534
772.588
657.894
578.73
765.576
578.727
657.891
772.581
819.525
814.312
770.383
671.146
611.314
772.366
611.311
671.143
770.378
814.304
808.767
767.195
691.018
643.574
780.709
643.572
691.015
767.191
808.76
803.222
734.875
639.338
642.969
741.98
642.967
639.336
734.871
803.217
823.043
737.454
860.715
741.927
838.407
741.926
860.714
737.452
823.04
869.748
770.671
942.307
792.524
879.588
792.523
942.307
770.67
869.746
905.003
860.858
1002.84
944.935
1003
944.934
1002.84
860.86
905.002
994.215
1131.99
1170.71
1061.68
1013.73
1061.68
1170.71
1131.99
994.215
304.061
316.461
350.504
352.706
429.769
352.704
350.504
316.461
304.061
341.267
412.087
445.495
401.29
451.879
401.288
445.494
412.086
341.267
295.323
357.138
430.381
427.355
477.673
427.352
430.378
357.136
295.322
290.39
327.395
414.866
452.566
508.842
452.562
414.862
327.393
290.389
293.085
323.723
420.505
485.534
544.858
485.529
420.5
323.72
293.083
306.156
340.9
445.392
525.417
583.411
525.412
445.385
340.896
306.153
335.507
376.291
483.914
568.835
622.1
568.829
483.906
376.285
335.503
382.423
426.364
530.575
612.647
659.155
612.64
530.566
426.357
382.417
442.812
485.74
580.536
654.527
693.441
654.521
580.526
485.732
442.805
509.768
548.319
629.782
692.884
724.268
692.877
629.771
548.309
509.76
576.465
608.711
675.273
726.699
751.254
726.692
675.262
608.7
576.455
637.774
662.974
714.893
755.308
774.106
755.302
714.881
662.962
637.761
690.771
708.514
747.04
778.226
793.248
778.22
747.029
708.501
690.756
733.179
742.72
769.57
793.681
805.962
793.674
769.558
742.706
733.165
760.762
761.015
779.195
799.887
822.247
799.88
779.184
761
760.748
762.813
756.415
772.367
784.489
784.523
784.483
772.357
756.401
762.799
725.215
725.019
763.572
770.426
968.654
770.42
763.561
725.006
725.201
624.593
670.675
750.371
757.993
1227.54
757.987
750.361
670.663
624.582
542.351
626.797
731.719
739.535
1247.87
739.528
731.71
626.788
542.343
505.663
605.474
718.651
731.167
1216.64
731.16
718.643
605.465
505.657
495.636
599.321
712.356
731.934
1182.8
731.926
712.348
599.312
495.63
498.495
601.286
710.755
737.739
1152.51
737.731
710.748
601.277
498.489
508.088
607.779
712.163
745.971
1124.53
745.963
712.156
607.771
508.082
522
617.308
715.802
755.376
1097.27
755.368
715.796
617.301
521.994
539.066
629.198
721.373
765.703
1070.4
765.696
721.367
629.191
539.06
558.206
642.848
729.123
777.631
1044.86
777.624
729.116
642.842
558.202
578.413
657.896
738.581
791.663
1021.63
791.658
738.575
657.891
578.409
597.084
671.148
757.149
816.922
1008.8
816.918
757.145
671.144
597.08
618.146
691.02
774.579
839.987
995.822
839.983
774.575
691.018
618.143
624.59
639.34
962.712
1066.25
1160.36
1066.25
962.707
639.338
624.588
691.445
860.718
1785.4
1133.79
1265.23
1133.79
1785.4
860.717
691.444
811.783
942.31
942.311
811.782
763.684
1002.84
654.783
614.183
690.663
614.183
654.783
1002.84
763.685
600.049
1170.71
935.126
897.614
893.708
897.614
935.129
1170.72
600.051
841.045
831.539
832.858
831.539
841.048
844.733
825.516
829.863
825.517
844.736
854.695
828.858
833.144
828.859
854.698
860.511
832.944
836.929
832.945
860.514
863.346
836.459
840.508
836.46
863.349
864.788
839.504
843.893
839.506
864.791
865.622
842.214
847.073
842.215
865.625
866.16
844.65
850.03
844.652
866.163
866.527
846.861
852.777
846.862
866.53
866.692
848.788
855.23
848.79
866.695
866.946
850.59
857.517
850.592
866.949
866.688
852.565
860.179
852.567
866.692
245.591
265.065
352.705
489.932
605.769
489.928
352.703
265.064
245.59
270.767
308.725
401.289
520.433
618.85
520.428
401.287
308.723
270.767
268.276
317.484
427.353
549.475
634.108
549.47
427.349
317.482
268.275
276.887
329.164
452.563
579.07
651.848
579.065
452.558
329.161
276.886
296.861
353.953
485.531
610.294
671.784
610.288
485.524
353.949
296.859
330.482
392.599
525.414
641.927
692.796
641.921
525.406
392.594
330.479
378.271
442.298
568.832
672.497
713.782
672.49
568.822
442.291
378.266
437.213
498.648
612.643
701.079
734.002
701.072
612.634
498.64
437.207
501.957
556.943
654.524
727.21
753.004
727.204
654.514
556.934
501.949
566.856
613.112
692.881
750.637
770.47
750.63
692.87
613.102
566.848
627.628
664.279
726.696
771.147
786.11
771.141
726.684
664.268
627.618
681.429
708.676
755.305
788.474
799.585
788.467
755.294
708.665
681.416
731.124
746.41
778.224
802.214
810.591
802.207
778.213
746.397
731.111
763.938
772.575
793.678
811.572
818.626
811.567
793.668
772.561
763.926
850.094
794.23
799.884
816.356
825.85
816.351
799.874
794.216
850.08
709.767
733.232
784.487
816.717
830.598
816.713
784.476
733.22
709.755
398.288
601.853
770.424
833.487
884.572
833.481
770.414
601.845
398.284
251.864
506.291
757.991
855.837
983.333
855.83
757.982
506.286
251.863
201.857
455.415
739.533
862.434
1032.52
862.428
739.525
455.41
201.857
201.183
443.755
731.165
863.383
1047.33
863.377
731.157
443.75
201.183
214.469
449.557
731.933
864.606
1047.89
864.6
731.924
449.553
214.469
231.911
462.373
737.737
867.034
1043.21
867.028
737.73
462.368
231.91
252.614
478.978
745.969
870.055
1036.06
870.049
745.962
478.973
252.613
277.77
498.857
755.374
873.382
1027.22
873.376
755.368
498.853
277.769
308.286
522.101
765.701
877.021
1017.24
877.016
765.695
522.096
308.285
344.03
548.765
777.629
881.744
1007.11
881.74
777.623
548.761
344.028
384.11
578.731
791.662
889.165
998.553
889.162
791.657
578.727
384.108
425.375
611.315
816.922
905.37
996.218
905.367
816.918
611.312
425.374
470.256
643.576
839.987
931.201
1000.52
931.199
839.984
643.573
470.255
496.506
642.971
1066.25
1039.17
1050.13
1039.17
1066.25
642.969
496.505
593.181
741.93
1133.79
641.591
691.492
641.59
1133.79
741.929
593.181
725.665
792.527
792.528
725.665
681.844
944.94
614.185
472.641
518.869
472.641
614.186
944.941
681.845
343.886
1061.68
897.618
793.56
764.547
793.56
897.62
1061.69
343.887
831.543
773.407
754.35
773.407
831.545
825.52
754.755
736.472
754.755
825.522
828.862
748.806
728.365
748.806
828.864
832.948
748.808
726.354
748.809
832.95
836.463
750.815
726.938
750.816
836.465
839.508
753.409
728.538
753.409
839.51
842.217
756.113
730.526
756.113
842.219
844.654
758.785
732.681
758.786
844.656
846.864
761.357
734.886
761.358
846.866
848.792
763.899
737.257
763.901
848.794
850.594
766.058
739.205
766.059
850.596
852.568
769.666
743.12
769.668
852.571
362.076
339.259
429.765
605.765
719.217
605.76
429.762
339.259
362.076
391.627
362.92
451.876
618.845
722.402
618.84
451.872
362.918
391.626
389.738
382.614
477.669
634.104
724.184
634.098
477.664
382.612
389.735
398.819
408.903
508.838
651.844
727.109
651.838
508.832
408.899
398.815
422.243
443.917
544.853
671.78
732.694
671.775
544.847
443.913
422.239
456.844
485.843
583.404
692.792
740.924
692.786
583.397
485.838
456.839
499.241
531.875
622.093
713.778
751.137
713.773
622.086
531.869
499.236
546.26
579.249
659.149
733.997
762.58
733.991
659.141
579.243
546.254
594.815
625.55
693.436
752.999
774.578
752.993
693.427
625.542
594.808
642.106
668.85
724.262
770.466
786.529
770.46
724.253
668.841
642.098
686.433
707.974
751.249
786.107
797.873
786.101
751.239
707.965
686.425
725.38
741.883
774.101
799.583
808.062
799.576
774.09
741.874
725.37
774.168
774.727
793.243
810.589
816.651
810.583
793.232
774.717
774.158
777.39
790.896
805.957
818.625
823.568
818.619
805.948
790.886
777.38
1248
883.021
822.243
825.848
830.91
825.843
822.234
883.01
1247.98
683.854
718.535
784.52
830.596
844.888
830.591
784.51
718.525
683.845
487.587
928.559
968.65
884.57
886.211
884.564
968.639
928.554
487.587
461.909
1057.36
1227.54
983.331
940.155
983.325
1227.53
1057.36
461.91
377.255
902.4
1247.87
1032.52
972.709
1032.52
1247.86
902.398
377.256
397.022
832.944
1216.64
1047.33
988.204
1047.32
1216.63
832.942
397.022
413.179
803.196
1182.8
1047.89
995.568
1047.89
1182.79
803.192
413.179
421.009
786.885
1152.51
1043.2
999.327
1043.2
1152.5
786.882
421.009
426.791
775.791
1124.53
1036.06
1000.86
1036.05
1124.52
775.788
426.791
434.986
767.981
1097.27
1027.22
1000.42
1027.22
1097.27
767.978
434.985
447.963
763.358
1070.4
1017.24
998.272
1017.23
1070.39
763.355
447.962
466.402
762.362
1044.86
1007.11
995.27
1007.11
1044.86
762.358
466.402
490.04
765.581
1021.64
998.554
993.111
998.551
1021.63
765.578
490.039
516.105
772.372
1008.8
996.219
995.424
996.217
1008.8
772.37
516.103
548.216
780.715
995.828
1000.52
1002.26
1000.52
995.826
780.713
548.215
561.875
741.986
1160.36
1050.13
1022.47
1050.13
1160.36
741.986
561.875
661.485
838.414
1265.23
691.492
757.45
691.493
1265.23
838.414
661.485
789.218
879.595
879.596
789.219
719.614
1003.01
690.669
518.873
479.371
518.878
690.674
1003.01
719.615
315.055
1013.74
893.716
764.553
637.223
764.558
893.72
1013.74
315.056
832.866
754.356
648.689
754.36
832.866
829.871
736.478
638.884
736.481
829.87
833.152
728.37
633.073
728.373
833.15
836.937
726.36
632.191
726.362
836.936
840.516
726.943
633.981
726.946
840.515
843.901
728.544
637.034
728.547
843.9
847.081
730.532
640.698
730.534
847.079
850.038
732.686
644.72
732.689
850.037
852.785
734.891
648.922
734.893
852.783
855.238
737.262
653.589
737.264
855.237
857.524
739.21
657.313
739.212
857.523
860.186
743.125
665.42
743.128
860.185
245.59
265.064
352.702
489.923
605.757
489.921
352.7
265.064
245.59
270.767
308.724
401.286
520.423
618.837
520.421
401.284
308.723
270.767
268.275
317.483
427.35
549.465
634.095
549.462
427.346
317.482
268.275
276.886
329.162
452.558
579.06
651.835
579.057
452.554
329.16
276.885
296.858
353.949
485.525
610.283
671.772
610.279
485.52
353.947
296.857
330.479
392.594
525.406
641.916
692.784
641.912
525.401
392.592
330.477
378.265
442.291
568.823
672.485
713.77
672.48
568.817
442.287
378.263
437.205
498.639
612.634
701.067
733.989
701.06
612.627
498.635
437.203
501.948
556.934
654.514
727.198
752.991
727.191
654.506
556.929
501.944
566.847
613.102
692.871
750.626
770.458
750.618
692.862
613.096
566.843
627.618
664.269
726.685
771.138
786.1
771.129
726.676
664.263
627.613
681.418
708.667
755.293
788.464
799.575
788.456
755.284
708.66
681.413
731.114
746.399
778.213
802.204
810.582
802.196
778.203
746.392
731.108
763.93
772.565
793.67
811.564
818.618
811.557
793.661
772.557
763.922
850.084
794.22
799.875
816.349
825.842
816.343
799.867
794.213
850.076
709.759
733.224
784.478
816.711
830.59
816.705
784.47
733.217
709.753
398.286
601.848
770.415
833.479
884.563
833.474
770.409
601.843
398.284
251.864
506.288
757.984
855.829
983.324
855.823
757.978
506.285
251.863
201.857
455.412
739.528
862.427
1032.52
862.422
739.521
455.41
201.857
201.183
443.752
731.16
863.377
1047.32
863.372
731.155
443.749
201.184
214.469
449.555
731.928
864.6
1047.89
864.595
731.923
449.552
214.469
231.911
462.371
737.734
867.029
1043.2
867.024
737.729
462.368
231.91
252.614
478.977
745.967
870.05
1036.05
870.046
745.962
478.974
252.614
277.771
498.857
755.374
873.378
1027.22
873.374
755.368
498.855
277.77
308.287
522.101
765.701
877.019
1017.23
877.015
765.697
522.099
308.287
344.031
548.767
777.631
881.744
1007.11
881.74
777.628
548.764
344.03
384.111
578.734
791.666
889.167
998.552
889.164
791.662
578.731
384.11
425.377
611.319
816.927
905.373
996.219
905.371
816.924
611.316
425.376
470.258
643.581
839.993
931.205
1000.52
931.204
839.991
643.578
470.258
496.509
642.976
1066.26
1039.17
1050.13
1039.17
1066.26
642.975
496.508
593.185
741.935
1133.8
641.593
691.495
641.592
1133.8
741.935
593.185
725.669
792.533
792.534
725.67
681.848
944.946
614.19
472.647
518.881
472.649
614.193
944.948
681.849
343.888
1061.69
897.626
793.57
764.562
793.572
897.627
1061.69
343.887
831.55
773.416
754.364
773.418
831.549
825.528
754.763
736.485
754.764
825.525
828.87
748.814
728.377
748.815
828.868
832.955
748.817
726.366
748.818
832.953
836.471
750.824
726.95
750.824
836.468
839.516
753.418
728.55
753.418
839.513
842.225
756.121
730.538
756.122
842.222
844.662
758.794
732.692
758.794
844.659
846.872
761.366
734.897
761.367
846.869
848.8
763.908
737.268
763.909
848.797
850.602
766.067
739.215
766.067
850.599
852.576
769.675
743.131
769.676
852.573
304.061
316.46
350.503
352.7
429.759
352.7
350.502
316.46
304.061
341.267
412.086
445.492
401.283
451.869
401.284
445.492
412.085
341.267
295.322
357.136
430.376
427.347
477.662
427.346
430.375
357.135
295.322
290.388
327.392
414.859
452.555
508.83
452.554
414.858
327.392
290.388
293.082
323.719
420.497
485.521
544.845
485.52
420.495
323.718
293.082
306.152
340.894
445.381
525.403
583.395
525.401
445.379
340.893
306.151
335.502
376.283
483.901
568.819
622.084
568.816
483.898
376.281
335.501
382.416
426.354
530.56
612.629
659.139
612.626
530.557
426.352
382.414
442.803
485.729
580.521
654.51
693.425
654.505
580.517
485.727
442.801
509.756
548.306
629.765
692.866
724.251
692.861
629.761
548.302
509.754
576.452
608.697
675.255
726.681
751.238
726.675
675.249
608.693
576.449
637.76
662.958
714.875
755.289
774.089
755.284
714.869
662.955
637.757
690.755
708.497
747.024
778.209
793.231
778.203
747.018
708.493
690.751
733.164
742.703
769.554
793.666
805.947
793.661
769.549
742.699
733.16
760.749
761
779.181
799.872
822.234
799.867
779.175
760.995
760.744
762.8
756.401
772.353
784.475
784.51
784.471
772.347
756.397
762.795
725.205
725.007
763.558
770.412
968.639
770.409
763.553
725.003
725.2
624.587
670.666
750.359
757.982
1227.53
757.978
750.355
670.661
624.582
542.347
626.789
731.709
739.526
1247.86
739.521
731.705
626.785
542.344
505.66
605.468
718.642
731.159
1216.63
731.154
718.639
605.463
505.657
495.633
599.315
712.348
731.927
1182.79
731.922
712.345
599.311
495.629
498.493
601.28
710.748
737.733
1152.5
737.728
710.745
601.277
498.489
508.085
607.775
712.157
745.966
1124.52
745.961
712.153
607.771
508.082
521.997
617.304
715.797
755.373
1097.27
755.367
715.794
617.3
521.994
539.063
629.194
721.369
765.7
1070.4
765.695
721.366
629.191
539.06
558.203
642.845
729.12
777.63
1044.86
777.626
729.117
642.842
558.2
578.41
657.895
738.58
791.664
1021.63
791.661
738.578
657.891
578.408
597.081
671.147
757.151
816.925
1008.8
816.923
757.149
671.145
597.079
618.144
691.021
774.582
839.992
995.829
839.991
774.579
691.02
618.143
624.589
639.343
962.718
1066.26
1160.37
1066.26
962.718
639.341
624.588
691.445
860.724
1785.41
1133.8
1265.23
1133.8
1785.41
860.724
691.445
811.786
942.317
942.319
811.785
763.689
1002.85
654.79
614.194
690.676
614.194
654.79
1002.85
763.689
600.054
1170.73
935.138
897.63
893.724
897.629
935.139
1170.73
600.054
841.057
831.551
832.87
831.55
841.057
844.745
825.528
829.874
825.527
844.745
854.708
828.87
833.154
828.869
854.708
860.523
832.955
836.94
832.954
860.524
863.358
836.471
840.519
836.47
863.358
864.8
839.516
843.904
839.515
864.8
865.635
842.225
847.083
842.224
865.635
866.172
844.662
850.04
844.661
866.172
866.539
846.872
852.787
846.871
866.539
866.704
848.799
855.24
848.799
866.704
866.957
850.601
857.527
850.6
866.957
866.7
852.576
860.188
852.575
866.7
272.101
257.624
316.46
265.064
339.257
265.064
316.46
257.624
272.101
319.043
350.117
412.085
308.723
362.917
308.723
412.085
350.117
319.043
262.594
290.588
357.135
317.481
382.611
317.482
357.135
290.588
262.593
256.054
266.804
327.392
329.16
408.898
329.16
327.392
266.803
256.053
261.843
266.206
323.718
353.947
443.912
353.947
323.718
266.205
261.843
274.873
280.781
340.894
392.592
485.836
392.591
340.893
280.78
274.872
300.377
311.264
376.283
442.288
531.867
442.287
376.281
311.262
300.376
342.663
358.378
426.354
498.636
579.241
498.634
426.352
358.376
342.662
400.551
419.01
485.728
556.93
625.539
556.928
485.727
419.008
400.549
468.234
487.006
548.305
613.099
668.839
613.096
548.302
487.004
468.231
538.343
555.563
608.696
664.266
707.964
664.263
608.693
555.561
538.34
604.458
619.058
662.957
708.663
741.873
708.66
662.955
619.055
604.455
662.066
673.516
708.495
746.395
774.717
746.393
708.493
673.512
662.062
708.696
716.186
742.702
772.56
790.887
772.558
742.699
716.182
708.691
743.1
744.921
760.998
794.216
883.011
794.213
760.995
744.917
743.096
767.675
760.005
756.4
733.22
718.526
733.218
756.397
760.002
767.671
821.413
779.651
725.005
601.845
928.554
601.844
725.003
779.647
821.408
860.263
791.061
670.663
506.287
1057.36
506.285
670.661
791.057
860.257
859.579
785.229
626.787
455.411
902.399
455.41
626.786
785.226
859.574
849.361
776.861
605.465
443.751
832.943
443.749
605.464
776.857
849.356
841.025
771.549
599.313
449.554
803.194
449.552
599.312
771.546
841.02
835.663
769.238
601.278
462.37
786.884
462.368
601.278
769.234
835.659
832.086
768.806
607.773
478.976
775.791
478.973
607.772
768.803
832.082
829.237
769.432
617.303
498.856
767.981
498.853
617.302
769.429
829.234
826.481
770.609
629.193
522.1
763.358
522.098
629.192
770.606
826.478
823.37
771.821
642.845
548.766
762.361
548.763
642.843
771.819
823.367
819.529
772.585
657.895
578.732
765.582
578.73
657.893
772.583
819.527
814.309
770.382
671.148
611.318
772.374
611.316
671.147
770.38
814.307
808.765
767.196
691.022
643.58
780.718
643.578
691.021
767.195
808.764
803.222
734.877
639.343
642.977
741.989
642.975
639.343
734.876
803.222
823.045
737.459
860.725
741.936
838.418
741.936
860.725
737.459
823.045
869.753
770.678
942.319
792.535
879.599
792.535
942.32
770.678
869.753
905.01
860.869
1002.85
944.948
1003.02
944.95
1002.85
860.869
905.011
994.224
1132
1170.73
1061.7
1013.75
1061.69
1170.73
1132.01
994.227
278.18
272.101
304.061
245.59
362.075
245.59
304.061
272.101
278.18
314.206
319.043
341.267
270.766
391.626
270.766
341.267
319.043
314.206
256.161
262.594
295.322
268.274
389.735
268.275
295.322
262.593
256.161
259.286
256.054
290.388
276.885
398.815
276.885
290.388
256.053
259.285
269.937
261.844
293.082
296.857
422.238
296.857
293.082
261.843
269.936
282.866
274.873
306.152
330.478
456.838
330.477
306.151
274.872
282.865
305.286
300.377
335.502
378.264
499.235
378.263
335.501
300.376
305.285
343.58
342.663
382.416
437.204
546.253
437.203
382.415
342.662
343.578
398.094
400.551
442.803
501.946
594.806
501.944
442.801
400.549
398.091
463.679
468.233
509.756
566.844
642.097
566.843
509.754
468.231
463.676
532.91
538.343
576.451
627.615
686.424
627.614
576.45
538.34
532.907
598.942
604.457
637.759
681.415
725.369
681.413
637.757
604.455
598.938
656.947
662.066
690.754
731.11
774.158
731.108
690.752
662.062
656.943
704.448
708.695
733.162
763.923
777.38
763.922
733.159
708.691
704.443
742.389
743.1
760.746
850.079
1247.99
850.076
760.743
743.096
742.384
774.928
767.675
762.798
709.756
683.845
709.754
762.796
767.671
774.923
823.74
821.412
725.202
398.284
487.587
398.284
725.201
821.408
823.736
878.324
860.262
624.583
251.864
461.91
251.863
624.583
860.258
878.319
909.397
859.578
542.344
201.857
377.256
201.857
542.345
859.574
909.392
922.254
849.36
505.657
201.184
397.022
201.183
505.658
849.357
922.249
926.359
841.023
495.63
214.469
413.18
214.469
495.631
841.021
926.355
926.643
835.662
498.49
231.911
421.009
231.91
498.49
835.66
926.638
924.82
832.085
508.082
252.614
426.792
252.613
508.083
832.083
924.815
921.336
829.236
521.995
277.771
434.985
277.77
521.996
829.235
921.332
916.308
826.48
539.061
308.287
447.963
308.286
539.062
826.479
916.304
909.826
823.369
558.202
344.03
466.403
344.029
558.203
823.368
909.822
902.058
819.529
578.41
384.111
490.041
384.11
578.41
819.529
902.056
893.419
814.309
597.082
425.377
516.105
425.376
597.082
814.309
893.417
885.609
808.766
618.145
470.258
548.217
470.258
618.146
808.765
885.607
882.475
803.223
624.59
496.509
561.877
496.508
624.591
803.223
882.474
897.851
823.046
691.447
593.186
661.488
593.185
691.447
823.047
897.85
927.987
869.753
811.788
725.671
789.223
725.671
811.788
869.754
927.987
951.764
905.01
763.691
681.85
719.619
681.85
763.69
905.011
951.765
999.432
994.228
600.056
343.889
315.057
343.889
600.056
994.231
999.438
)
;

boundaryField
{
    injectionXMinus
    {
        type            uniformFixedValue;
        uniformValue    uniform 400;
        value           uniform 400;
    }
    injectionXPlus
    {
        type            uniformFixedValue;
        uniformValue    uniform 400;
        value           uniform 400;
    }
    injectionYMinus
    {
        type            uniformFixedValue;
        uniformValue    uniform 400;
        value           uniform 400;
    }
    injectionYPlus
    {
        type            uniformFixedValue;
        uniformValue    uniform 400;
        value           uniform 400;
    }
    inletXMinus
    {
        type            uniformFixedValue;
        uniformValue    uniform 293.15;
        value           uniform 293.15;
    }
    inletXPlus
    {
        type            uniformFixedValue;
        uniformValue    uniform 293.15;
        value           uniform 293.15;
    }
    inletYMinus
    {
        type            uniformFixedValue;
        uniformValue    uniform 293.15;
        value           uniform 293.15;
    }
    inletYPlus
    {
        type            uniformFixedValue;
        uniformValue    uniform 293.15;
        value           uniform 293.15;
    }
    outlet
    {
        type            zeroGradient;
    }
    valve
    {
        type            zeroGradient;
    }
    walls
    {
        type            zeroGradient;
    }
}


// ************************************************************************* //
