/*--------------------------------*- C++ -*----------------------------------*\
  =========                 |
  \\      /  F ield         | OpenFOAM: The Open Source CFD Toolbox
   \\    /   O peration     | Website:  https://openfoam.org
    \\  /    A nd           | Version:  6
     \\/     M anipulation  |
\*---------------------------------------------------------------------------*/
FoamFile
{
    version     2.0;
    format      ascii;
    class       volScalarField;
    location    "0.9";
    object      T;
}
// * * * * * * * * * * * * * * * * * * * * * * * * * * * * * * * * * * * * * //

dimensions      [0 0 0 1 0 0 0];

internalField   nonuniform List<scalar> 
3029
(
278.133
272.084
303.572
248.271
308.951
248.271
303.572
272.084
278.133
314.126
319.006
340.657
273.306
331.441
273.307
340.657
319.006
314.126
255.933
262.293
294.545
268.078
316.367
268.078
294.544
262.292
255.933
258.562
254.993
289.313
268.837
303.277
268.837
289.313
254.992
258.562
267.515
258.323
288.455
271.196
295.723
271.196
288.454
258.322
267.514
273.341
262.366
287.886
273.402
291.641
273.401
287.884
262.365
273.34
276.187
265.353
287.346
275.229
289.416
275.228
287.343
265.351
276.185
277.305
267.398
286.86
276.77
288.23
276.769
286.857
267.395
277.303
277.563
268.846
286.45
278.154
287.761
278.152
286.447
268.842
277.56
277.422
269.942
286.141
279.497
287.889
279.495
286.137
269.938
277.418
277.094
270.822
285.977
281.074
289.058
281.072
285.972
270.818
277.09
276.644
271.57
285.976
282.881
290.422
282.878
285.971
271.565
276.64
276.1
272.191
286.257
287.158
300.226
287.155
286.252
272.185
276.095
275.564
272.752
286.533
288.033
291.845
288.03
286.527
272.745
275.559
275.729
273.252
286.055
316.272
475.384
316.268
286.049
273.245
275.723
278.192
274.958
278.047
255.541
264.872
255.537
278.041
274.95
278.185
289.344
288.042
267.918
228.876
479.004
228.875
267.912
288.034
289.336
304.803
302.289
258.551
222.611
485.917
222.61
258.546
302.28
304.794
315.001
306.338
244.396
210.469
404.073
210.469
244.391
306.328
314.992
321.562
308.182
239.24
216.361
426.772
216.36
239.235
308.173
321.552
327.391
311.422
240.66
225.776
442.52
225.775
240.656
311.413
327.382
334.031
316.647
245.46
234.45
447.255
234.448
245.456
316.637
334.021
342.05
323.642
251.99
242.183
446.921
242.181
251.985
323.633
342.039
351.58
332.117
259.545
249.482
444.87
249.48
259.541
332.107
351.568
362.566
341.796
267.808
256.756
442.507
256.753
267.803
341.786
362.554
374.831
352.342
276.477
264.216
440.33
264.213
276.471
352.331
374.819
388.108
363.339
285.421
272.248
438.9
272.245
285.416
363.328
388.095
402.123
374.044
293.397
280.054
437.361
280.051
293.392
374.033
402.109
417.181
384.533
303.546
292.086
441.913
292.083
303.541
384.522
417.168
434.82
394.467
305.299
292.82
433.903
292.817
305.294
394.455
434.806
462.156
415.975
335.611
345.332
501.975
345.329
335.605
415.964
462.142
500.935
454.859
397.417
412.228
585.202
412.225
397.41
454.847
500.92
542.733
496.735
369.893
346.457
483.568
346.454
369.886
496.722
542.717
658.915
641.891
336.912
138.13
161.421
138.128
336.904
641.875
658.897
272.084
257.037
315.863
261.35
264.494
261.35
315.862
257.037
272.084
319.006
349.299
411.267
302.968
279.554
302.967
411.266
349.299
319.005
262.293
289.102
355.503
304.16
282.108
304.16
355.502
289.102
262.292
254.993
263.818
322.189
299.426
281.529
299.425
322.187
263.816
254.992
258.323
258.54
307.703
296.19
281.22
296.189
307.7
258.539
258.322
262.366
259.822
301.839
294.659
281.649
294.657
301.836
259.819
262.364
265.353
262.559
299.442
294.139
282.655
294.138
299.439
262.556
265.35
267.398
265.29
298.395
294.169
284.09
294.167
298.391
265.286
267.394
268.845
267.711
297.891
294.55
285.931
294.548
297.886
267.707
268.841
269.941
269.823
297.648
295.257
288.242
295.254
297.643
269.818
269.937
270.822
271.668
297.603
296.413
291.315
296.411
297.597
271.662
270.817
271.57
273.317
297.729
298.102
295.059
298.099
297.722
273.311
271.564
272.19
274.75
297.977
301.003
302.151
301
297.97
274.743
272.184
272.751
275.846
297.859
302.686
303.938
302.682
297.851
275.839
272.744
273.251
276.196
295.898
308.847
348.022
308.843
295.89
276.188
273.243
274.957
276.744
289.937
274.325
240.56
274.321
289.929
276.735
274.949
288.041
281.353
272.729
264.39
654.139
264.386
272.722
281.344
288.032
302.288
283.3
252.543
294.828
965.238
294.824
252.536
283.29
302.277
306.336
281.805
243.185
306.914
866.976
306.91
243.179
281.795
306.325
308.181
282.114
243.739
317.985
809.204
317.98
243.733
282.103
308.169
311.421
285.534
249.923
328.988
777.112
328.982
249.916
285.524
311.41
316.646
291.577
258.949
339.446
754.138
339.44
258.942
291.567
316.634
323.641
299.583
269.507
349.52
734.981
349.513
269.499
299.572
323.63
332.116
309.077
281.051
359.548
718.272
359.541
281.044
309.066
332.104
341.795
319.728
293.389
369.928
703.783
369.921
293.381
319.717
341.783
352.341
331.112
306.321
381.168
691.709
381.162
306.313
331.1
352.329
363.339
342.969
320.333
393.998
682.545
393.991
320.325
342.957
363.325
374.044
353.177
332.669
409.111
675.953
409.105
332.66
353.165
374.031
384.533
364.769
356.071
428.161
672.555
428.155
356.062
364.757
384.52
394.467
355.365
318.38
425.077
628.077
425.071
318.372
355.353
394.454
415.975
376.624
543.397
548.072
727.41
548.067
543.387
376.613
415.962
454.86
404.186
624.626
616.66
788.336
616.655
624.615
404.176
454.846
496.735
452.788
595.629
648.392
830.619
648.386
595.619
452.777
496.721
641.891
720.641
707.08
591.721
650.318
591.714
707.067
720.623
641.875
303.572
315.863
347.608
305.888
270.145
305.887
347.608
315.862
303.572
340.657
411.266
440.304
345.725
280.421
345.724
440.302
411.265
340.657
294.545
355.503
418.107
352.373
285.295
352.372
418.104
355.501
294.544
289.313
322.188
387.16
347.023
287.417
347.022
387.157
322.186
289.312
288.455
307.702
366.49
340.479
289.165
340.477
366.486
307.7
288.453
287.886
301.839
354.023
335.357
291.358
335.356
354.018
301.835
287.883
287.345
299.442
346.18
331.768
294.149
331.767
346.175
299.437
287.342
286.859
298.394
340.796
329.418
297.553
329.416
340.791
298.389
286.855
286.45
297.89
336.814
328.118
301.621
328.115
336.808
297.885
286.445
286.141
297.648
333.783
327.834
306.468
327.831
333.777
297.642
286.135
285.976
297.602
331.557
328.651
312.284
328.648
331.55
297.595
285.97
285.975
297.728
330.092
330.646
319.143
330.643
330.084
297.72
285.968
286.256
297.976
329.269
333.864
327.592
333.86
329.261
297.968
286.248
286.532
297.858
328.469
337.306
335.082
337.301
328.46
297.849
286.523
286.054
295.897
326.38
340.571
351.505
340.566
326.371
295.887
286.045
278.045
289.936
321.225
333.801
317.899
333.796
321.216
289.926
278.037
267.916
272.728
317.128
330.647
468.525
330.641
317.118
272.718
267.906
258.549
252.541
312.449
346.557
776.913
346.55
312.439
252.532
258.541
244.394
243.183
308.596
360.21
859.6
360.202
308.586
243.175
244.387
239.238
243.738
309.535
374.305
866.867
374.297
309.525
243.729
239.232
240.659
249.921
314.935
389.835
856.342
389.826
314.924
249.912
240.652
245.459
258.947
323.416
406.427
843.419
406.417
323.405
258.938
245.452
251.989
269.505
333.952
423.666
831.796
423.655
333.942
269.496
251.982
259.545
281.05
346.018
441.405
822.099
441.395
346.007
281.041
259.537
267.807
293.388
359.389
459.783
814.371
459.772
359.377
293.378
267.799
276.476
306.32
374.289
479.664
808.99
479.653
374.277
306.31
276.469
285.421
320.333
390.863
501.55
805.682
501.54
390.851
320.323
285.413
293.397
332.668
413.868
534.5
811.246
534.49
413.856
332.658
293.39
303.546
356.071
443.88
566.817
813.755
566.807
443.868
356.061
303.539
305.299
318.38
563.546
772.967
970.038
772.957
563.53
318.37
305.292
335.612
543.397
1407.43
962.653
1137.28
962.647
1407.41
543.386
335.604
397.418
624.626
624.615
397.409
369.894
595.63
396.214
436.807
605.089
436.803
396.207
595.618
369.886
336.914
707.084
571.374
556.166
650.858
556.159
571.362
707.068
336.906
519.283
504.573
578.793
504.566
519.272
527.001
499.915
566.441
499.908
526.99
537.998
503.391
564.591
503.384
537.987
546.502
508.08
565.02
508.072
546.491
553.088
512.642
566.017
512.634
553.077
558.776
517.035
567.224
517.027
558.765
564.061
521.314
568.526
521.306
564.05
569.159
525.529
569.897
525.52
569.147
574.109
529.661
571.304
529.653
574.098
579.111
533.884
572.823
533.875
579.1
583.363
537.438
574.096
537.43
583.351
590.708
543.799
576.644
543.79
590.696
248.272
261.35
305.887
311.618
292.504
311.617
305.886
261.348
248.271
273.306
302.966
345.723
329.14
296.909
329.138
345.722
302.965
273.306
268.078
304.159
352.371
335.195
299.07
335.194
352.368
304.157
268.077
268.836
299.425
347.021
334.545
300.428
334.543
347.018
299.422
268.835
271.196
296.189
340.477
332.272
302.467
332.27
340.473
296.186
271.194
273.4
294.657
335.355
330.527
305.748
330.525
335.351
294.653
273.398
275.227
294.137
331.766
329.949
310.352
329.947
331.761
294.133
275.224
276.768
294.166
329.416
330.69
316.236
330.687
329.41
294.162
276.765
278.152
294.547
328.115
332.805
323.377
332.801
328.109
294.542
278.147
279.494
295.253
327.831
336.37
331.799
336.367
327.825
295.248
279.49
281.071
296.41
328.648
341.479
341.547
341.475
328.641
296.404
281.065
282.878
298.099
330.643
348.168
352.598
348.164
330.635
298.092
282.871
287.155
300.999
333.861
356.329
364.872
356.323
333.854
300.991
287.148
288.03
302.682
337.303
365.383
377.76
365.377
337.294
302.673
288.023
316.269
308.843
340.568
374.644
392.084
374.638
340.559
308.834
316.26
255.537
274.322
333.798
382.936
404.615
382.93
333.788
274.313
255.529
228.875
264.387
330.644
396.112
433.181
396.104
330.634
264.38
228.871
222.611
294.826
346.554
412.836
503.984
412.827
346.543
294.821
222.61
210.469
306.912
360.206
425.968
555.354
425.959
360.196
306.908
210.469
216.361
317.983
374.302
439.26
586.196
439.25
374.291
317.979
216.361
225.776
328.986
389.832
454.463
607.015
454.453
389.821
328.981
225.775
234.45
339.443
406.423
471.514
624.145
471.503
406.412
339.438
234.449
242.182
349.517
423.661
489.894
640.217
489.883
423.65
349.512
242.181
249.481
359.545
441.401
509.474
656.265
509.462
441.39
359.539
249.48
256.755
369.925
459.778
530.318
672.814
530.307
459.767
369.919
256.753
264.215
381.165
479.659
553.193
690.563
553.182
479.647
381.159
264.213
272.247
393.994
501.545
579.387
710.504
579.377
501.533
393.988
272.245
280.053
409.108
534.495
615.792
737.273
615.781
534.483
409.102
280.051
292.084
428.158
566.812
661.859
769.922
661.849
566.8
428.151
292.082
292.819
425.074
772.963
807.023
859.051
807.014
772.95
425.067
292.816
345.33
548.069
962.651
549.562
610.794
549.558
962.639
548.062
345.328
412.226
616.658
616.651
412.223
346.457
648.391
436.805
348.829
463.878
348.825
436.8
648.384
346.453
138.131
591.723
556.167
537.33
621.649
537.322
556.158
591.715
138.129
504.574
514.315
596.602
514.307
504.566
499.916
499.914
575.847
499.905
499.908
503.392
496.606
567.028
496.598
503.384
508.081
498.307
564.552
498.299
508.073
512.643
501.714
564.664
501.705
512.634
517.037
505.653
565.76
505.645
517.028
521.316
509.719
567.212
509.71
521.307
525.53
513.791
568.798
513.782
525.521
529.663
517.792
570.422
517.783
529.654
533.885
521.863
572.125
521.854
533.876
537.44
525.288
573.581
525.278
537.431
543.801
531.373
576.26
531.364
543.792
308.951
264.493
270.143
292.502
308.408
292.5
270.142
264.492
308.95
331.44
279.552
280.419
296.907
309.508
296.905
280.417
279.551
331.439
316.367
282.107
285.293
299.067
309.644
299.065
285.29
282.105
316.364
303.276
281.527
287.415
300.425
310.36
300.423
287.412
281.525
303.273
295.721
281.218
289.162
302.465
312.736
302.462
289.159
281.215
295.718
291.639
281.647
291.354
305.746
317.033
305.743
291.351
281.644
291.636
289.414
282.653
294.145
310.35
323.127
310.346
294.141
282.649
289.41
288.228
284.087
297.549
316.232
330.821
316.229
297.545
284.084
288.224
287.758
285.928
301.617
323.373
339.964
323.37
301.612
285.923
287.754
287.885
288.238
306.464
331.796
350.471
331.792
306.459
288.234
287.881
289.055
291.311
312.28
341.544
362.283
341.539
312.274
291.306
289.049
290.418
295.054
319.139
352.595
375.31
352.59
319.132
295.048
290.412
300.222
302.146
327.588
364.869
389.404
364.863
327.58
302.139
300.216
291.841
303.933
335.078
377.757
404.397
377.751
335.07
303.926
291.835
475.376
348.017
351.5
392.081
420.749
392.074
351.491
348.008
475.365
264.867
240.555
317.894
404.611
441.841
404.604
317.885
240.547
264.86
479.004
654.136
468.519
433.177
474.523
433.168
468.508
654.132
479.004
485.917
965.237
776.907
503.979
510.626
503.969
776.897
965.236
485.918
404.074
866.976
859.595
555.349
538.927
555.339
859.585
866.974
404.074
426.772
809.204
866.863
586.191
561.882
586.181
866.853
809.201
426.772
442.52
777.112
856.339
607.01
582.845
607
856.329
777.109
442.52
447.256
754.139
843.415
624.14
603.448
624.13
843.406
754.136
447.256
446.922
734.982
831.792
640.212
624.218
640.203
831.784
734.98
446.922
444.872
718.274
822.097
656.261
645.254
656.251
822.087
718.271
444.871
442.509
703.786
814.368
672.809
666.773
672.8
814.359
703.782
442.508
440.332
691.712
808.989
690.559
689.462
690.549
808.979
691.708
440.332
438.902
682.548
805.68
710.501
714.562
710.491
805.669
682.544
438.901
437.364
675.957
811.245
737.27
745.914
737.261
811.234
675.953
437.363
441.916
672.559
813.754
769.92
783.7
769.911
813.744
672.555
441.915
433.906
628.082
970.039
859.05
849.341
859.041
970.027
628.077
433.906
501.98
727.413
1137.29
610.794
684.359
610.791
1137.27
727.408
501.98
585.207
788.34
788.334
585.206
483.573
830.625
605.092
463.881
442.93
463.88
605.091
830.621
483.572
161.424
650.326
650.864
621.653
570.201
621.651
650.861
650.323
161.425
578.798
596.606
574.55
596.604
578.794
566.446
575.851
563.424
575.848
566.441
564.596
567.033
557.192
567.03
564.591
565.026
564.556
555.728
564.553
565.02
566.023
564.668
556.654
564.665
566.017
567.229
565.764
558.564
565.761
567.224
568.532
567.217
560.818
567.214
568.526
569.903
568.803
563.162
568.8
569.897
571.31
570.427
565.488
570.424
571.304
572.828
572.129
567.843
572.127
572.823
574.101
573.586
569.841
573.584
574.096
576.649
576.264
573.305
576.262
576.644
248.271
261.349
305.886
311.614
292.498
311.614
305.885
261.349
248.271
273.306
302.966
345.723
329.136
296.903
329.136
345.721
302.965
273.306
268.077
304.159
352.37
335.192
299.063
335.191
352.368
304.158
268.077
268.836
299.424
347.02
334.541
300.421
334.54
347.017
299.423
268.835
271.195
296.187
340.475
332.268
302.46
332.267
340.473
296.186
271.194
273.399
294.655
335.353
330.522
305.741
330.521
335.35
294.653
273.398
275.225
294.135
331.763
329.945
310.345
329.943
331.76
294.132
275.223
276.766
294.163
329.413
330.684
316.227
330.682
329.409
294.161
276.764
278.149
294.545
328.112
332.798
323.368
332.796
328.108
294.541
278.146
279.492
295.25
327.827
336.363
331.79
336.361
327.824
295.247
279.488
281.068
296.407
328.643
341.472
341.537
341.469
328.639
296.403
281.064
282.874
298.095
330.637
348.16
352.588
348.157
330.632
298.091
282.87
287.15
300.995
333.855
356.319
364.861
356.316
333.85
300.99
287.146
288.026
302.677
337.296
365.373
377.749
365.37
337.291
302.672
288.02
316.263
308.838
340.561
374.634
392.072
374.63
340.555
308.832
316.258
255.533
274.316
333.79
382.925
404.602
382.921
333.784
274.311
255.527
228.873
264.383
330.636
396.099
433.166
396.094
330.629
264.379
228.871
222.61
294.822
346.545
412.823
503.967
412.817
346.539
294.819
222.61
210.469
306.908
360.198
425.955
555.336
425.949
360.192
306.906
210.469
216.361
317.98
374.293
439.246
586.178
439.24
374.287
317.978
216.361
225.775
328.982
389.823
454.449
606.997
454.442
389.817
328.98
225.775
234.449
339.44
406.415
471.5
624.127
471.493
406.409
339.438
234.449
242.182
349.515
423.654
489.88
640.2
489.873
423.647
349.512
242.182
249.482
359.543
441.394
509.459
656.248
509.453
441.387
359.541
249.481
256.756
369.925
459.773
530.305
672.797
530.298
459.766
369.922
256.755
264.216
381.166
479.655
553.181
690.547
553.174
479.648
381.162
264.215
272.249
393.996
501.543
579.377
710.49
579.37
501.535
393.992
272.248
280.055
409.111
534.494
615.783
737.26
615.776
534.486
409.107
280.055
292.088
428.162
566.812
661.851
769.91
661.845
566.805
428.158
292.087
292.823
425.078
772.965
807.017
859.041
807.01
772.956
425.074
292.822
345.336
548.074
962.654
549.56
610.792
549.557
962.643
548.07
345.334
412.232
616.663
616.658
412.231
346.46
648.396
436.809
348.831
463.883
348.83
436.807
648.392
346.459
138.131
591.723
556.166
537.33
621.655
537.327
556.162
591.717
138.13
504.572
514.314
596.607
514.312
504.567
499.914
499.913
575.852
499.91
499.909
503.39
496.605
567.034
496.602
503.385
508.079
498.306
564.557
498.303
508.073
512.64
501.712
564.669
501.709
512.635
517.034
505.652
565.765
505.649
517.029
521.313
509.718
567.218
509.715
521.308
525.527
513.789
568.804
513.787
525.522
529.66
517.79
570.428
517.788
529.655
533.882
521.861
572.13
521.859
533.877
537.436
525.285
573.587
525.284
537.432
543.797
531.371
576.266
531.37
543.793
303.572
315.862
347.607
305.884
270.14
305.885
347.606
315.862
303.572
340.657
411.265
440.301
345.72
280.416
345.721
440.3
411.265
340.657
294.544
355.501
418.102
352.367
285.289
352.367
418.102
355.5
294.544
289.312
322.186
387.155
347.017
287.411
347.017
387.154
322.185
289.311
288.452
307.699
366.483
340.472
289.158
340.472
366.483
307.698
288.452
287.882
301.834
354.015
335.349
291.349
335.35
354.014
301.833
287.882
287.341
299.436
346.172
331.76
294.14
331.76
346.17
299.435
287.34
286.854
298.387
340.787
329.409
297.544
329.409
340.786
298.386
286.853
286.444
297.883
336.805
328.107
301.611
328.107
336.803
297.881
286.442
286.133
297.64
333.773
327.823
306.457
327.823
333.771
297.637
286.132
285.969
297.594
331.545
328.639
312.273
328.638
331.543
297.591
285.967
285.967
297.718
330.08
330.632
319.13
330.632
330.077
297.716
285.965
286.248
297.965
329.257
333.85
327.578
333.849
329.254
297.963
286.245
286.523
297.847
328.456
337.291
335.068
337.29
328.453
297.844
286.52
286.045
295.886
326.367
340.556
351.49
340.554
326.363
295.883
286.042
278.037
289.925
321.212
333.785
317.883
333.784
321.208
289.922
278.033
267.908
272.718
317.114
330.631
468.507
330.629
317.11
272.714
267.904
258.543
252.532
312.435
346.541
776.895
346.538
312.431
252.528
258.539
244.389
243.175
308.582
360.194
859.583
360.191
308.578
243.171
244.385
239.233
243.729
309.522
374.29
866.851
374.286
309.518
243.725
239.23
240.654
249.913
314.921
389.821
856.328
389.816
314.917
249.909
240.65
245.454
258.939
323.401
406.412
843.405
406.407
323.397
258.935
245.45
251.983
269.497
333.938
423.651
831.783
423.645
333.934
269.492
251.979
259.539
281.041
346.005
441.391
822.087
441.385
346
281.037
259.535
267.801
293.379
359.375
459.769
814.358
459.763
359.37
293.374
267.797
276.47
306.311
374.275
479.651
808.978
479.645
374.27
306.307
276.466
285.414
320.324
390.851
501.538
805.669
501.532
390.846
320.319
285.411
293.391
332.659
413.857
534.488
811.235
534.482
413.851
332.655
293.387
303.54
356.063
443.87
566.807
813.745
566.801
443.864
356.058
303.537
305.293
318.373
563.536
772.958
970.029
772.953
563.529
318.369
305.29
335.606
543.392
1407.42
962.646
1137.28
962.643
1407.41
543.387
335.602
397.411
624.622
624.617
397.407
369.887
595.624
396.211
436.807
605.094
436.805
396.207
595.619
369.883
336.906
707.071
571.366
556.165
650.865
556.162
571.361
707.065
336.902
519.275
504.571
578.797
504.567
519.271
526.994
499.912
566.445
499.909
526.989
537.991
503.388
564.594
503.385
537.987
546.495
508.077
565.024
508.074
546.491
553.081
512.639
566.021
512.636
553.076
558.769
517.032
567.227
517.03
558.765
564.054
521.311
568.529
521.309
564.05
569.152
525.526
569.901
525.523
569.147
574.103
529.658
571.308
529.656
574.099
579.105
533.881
572.826
533.878
579.1
583.356
537.436
574.099
537.433
583.352
590.702
543.797
576.647
543.794
590.697
272.083
257.036
315.862
261.348
264.491
261.348
315.862
257.036
272.084
319.005
349.298
411.265
302.965
279.55
302.965
411.264
349.298
319.005
262.292
289.101
355.5
304.157
282.105
304.157
355.5
289.101
262.292
254.992
263.816
322.185
299.422
281.524
299.422
322.185
263.815
254.991
258.321
258.538
307.698
296.185
281.215
296.186
307.698
258.537
258.321
262.363
259.818
301.834
294.652
281.643
294.652
301.833
259.817
262.362
265.349
262.554
299.436
294.131
282.648
294.132
299.435
262.553
265.348
267.394
265.284
298.387
294.16
284.082
294.16
298.386
265.283
267.392
268.841
267.705
297.883
294.54
285.922
294.541
297.881
267.704
268.839
269.935
269.816
297.639
295.247
288.232
295.247
297.637
269.814
269.933
270.815
271.66
297.593
296.403
291.305
296.403
297.591
271.658
270.813
271.563
273.308
297.717
298.091
295.047
298.091
297.716
273.306
271.561
272.182
274.74
297.964
300.99
302.139
300.99
297.963
274.738
272.18
272.743
275.836
297.845
302.672
303.926
302.671
297.844
275.834
272.74
273.242
276.185
295.885
308.833
348.007
308.832
295.883
276.183
273.239
274.947
276.732
289.924
274.311
240.546
274.311
289.922
276.729
274.944
288.03
281.341
272.716
264.379
654.131
264.378
272.714
281.338
288.027
302.276
283.288
252.53
294.82
965.235
294.819
252.528
283.284
302.272
306.325
281.792
243.173
306.908
866.974
306.906
243.171
281.789
306.321
308.169
282.1
243.727
317.979
809.202
317.977
243.725
282.097
308.165
311.409
285.52
249.911
328.982
777.11
328.979
249.909
285.517
311.405
316.634
291.564
258.937
339.44
754.138
339.437
258.935
291.56
316.629
323.629
299.569
269.495
349.514
734.982
349.511
269.492
299.565
323.625
332.103
309.064
281.04
359.542
718.273
359.538
281.037
309.06
332.099
341.782
319.715
293.377
369.923
703.784
369.919
293.375
319.71
341.778
352.328
331.098
306.31
381.163
691.71
381.16
306.307
331.095
352.324
363.326
342.956
320.323
393.993
682.546
393.99
320.319
342.952
363.321
374.031
353.164
332.658
409.107
675.956
409.104
332.655
353.16
374.027
384.52
364.756
356.062
428.158
672.558
428.155
356.059
364.752
384.516
394.454
355.353
318.372
425.074
628.08
425.071
318.369
355.349
394.45
415.963
376.614
543.391
548.069
727.41
548.067
543.387
376.61
415.959
454.848
404.177
624.621
616.658
788.336
616.656
624.617
404.174
454.843
496.723
452.778
595.623
648.392
830.624
648.39
595.619
452.774
496.719
641.879
720.628
707.072
591.722
650.327
591.718
707.068
720.624
641.875
278.132
272.084
303.572
248.271
308.95
248.271
303.572
272.084
278.133
314.126
319.005
340.657
273.305
331.439
273.306
340.657
319.005
314.126
255.933
262.292
294.544
268.076
316.364
268.077
294.544
262.292
255.932
258.562
254.992
289.312
268.835
303.273
268.835
289.312
254.991
258.561
267.514
258.321
288.452
271.193
295.718
271.193
288.452
258.32
267.513
273.339
262.363
287.882
273.397
291.635
273.398
287.882
262.362
273.338
276.183
265.349
287.341
275.223
289.41
275.223
287.341
265.348
276.182
277.301
267.394
286.854
276.763
288.223
276.763
286.853
267.392
277.299
277.559
268.84
286.443
278.146
287.753
278.146
286.443
268.839
277.557
277.417
269.935
286.133
279.488
287.88
279.488
286.132
269.933
277.414
277.088
270.815
285.968
281.064
289.049
281.064
285.967
270.813
277.086
276.638
271.562
285.966
282.87
290.412
282.87
285.965
271.561
276.635
276.093
272.182
286.246
287.146
300.215
287.146
286.245
272.18
276.091
275.557
272.743
286.522
288.021
291.835
288.02
286.52
272.74
275.554
275.721
273.242
286.043
316.258
475.364
316.257
286.041
273.239
275.718
278.183
274.947
278.035
255.528
264.859
255.527
278.033
274.944
278.18
289.334
288.03
267.905
228.871
479.003
228.871
267.904
288.027
289.331
304.792
302.275
258.541
222.61
485.918
222.61
258.539
302.272
304.789
314.989
306.324
244.387
210.469
404.074
210.469
244.385
306.321
314.986
321.55
308.168
239.231
216.361
426.772
216.361
239.23
308.165
321.546
327.379
311.408
240.652
225.776
442.52
225.775
240.651
311.405
327.375
334.019
316.632
245.452
234.45
447.256
234.449
245.451
316.63
334.014
342.037
323.628
251.981
242.182
446.922
242.181
251.98
323.625
342.032
351.566
332.102
259.537
249.482
444.871
249.48
259.536
332.099
351.562
362.553
341.781
267.799
256.755
442.509
256.754
267.798
341.778
362.548
374.817
352.328
276.468
264.216
440.333
264.214
276.467
352.324
374.812
388.094
363.325
285.413
272.248
438.903
272.246
285.412
363.322
388.09
402.109
374.031
293.39
280.054
437.364
280.053
293.388
374.027
402.104
417.168
384.52
303.539
292.086
441.917
292.085
303.538
384.517
417.163
434.806
394.454
305.293
292.821
433.908
292.82
305.291
394.451
434.802
462.143
415.963
335.605
345.333
501.982
345.332
335.603
415.96
462.138
500.922
454.847
397.411
412.23
585.209
412.228
397.408
454.844
500.917
542.719
496.723
369.887
346.458
483.575
346.457
369.884
496.719
542.714
658.902
641.881
336.907
138.131
161.426
138.13
336.905
641.878
658.901
)
;

boundaryField
{
    injectionXMinus
    {
        type            uniformFixedValue;
        uniformValue    uniform 400;
        value           uniform 400;
    }
    injectionXPlus
    {
        type            uniformFixedValue;
        uniformValue    uniform 400;
        value           uniform 400;
    }
    injectionYMinus
    {
        type            uniformFixedValue;
        uniformValue    uniform 400;
        value           uniform 400;
    }
    injectionYPlus
    {
        type            uniformFixedValue;
        uniformValue    uniform 400;
        value           uniform 400;
    }
    inletXMinus
    {
        type            uniformFixedValue;
        uniformValue    uniform 293.15;
        value           uniform 293.15;
    }
    inletXPlus
    {
        type            uniformFixedValue;
        uniformValue    uniform 293.15;
        value           uniform 293.15;
    }
    inletYMinus
    {
        type            uniformFixedValue;
        uniformValue    uniform 293.15;
        value           uniform 293.15;
    }
    inletYPlus
    {
        type            uniformFixedValue;
        uniformValue    uniform 293.15;
        value           uniform 293.15;
    }
    outlet
    {
        type            zeroGradient;
    }
    valve
    {
        type            zeroGradient;
    }
    walls
    {
        type            zeroGradient;
    }
}


// ************************************************************************* //
