/*--------------------------------*- C++ -*----------------------------------*\
  =========                 |
  \\      /  F ield         | OpenFOAM: The Open Source CFD Toolbox
   \\    /   O peration     | Website:  https://openfoam.org
    \\  /    A nd           | Version:  6
     \\/     M anipulation  |
\*---------------------------------------------------------------------------*/
FoamFile
{
    version     2.0;
    format      ascii;
    class       volScalarField;
    location    "0.4";
    object      alpha_exh;
}
// * * * * * * * * * * * * * * * * * * * * * * * * * * * * * * * * * * * * * //

dimensions      [0 0 0 0 0 0 0];

internalField   nonuniform List<scalar> 
3029
(
1.16446e-05
-1.31833e-06
0.000191955
-0.00112258
0.016667
-0.00112211
0.000192184
-1.20598e-06
1.09714e-05
1.52556e-05
1.06023e-05
0.000192849
-0.00101434
0.0185049
-0.00101353
0.000193248
1.10821e-05
1.51695e-05
3.97221e-05
2.99695e-05
0.000359598
-0.000496738
0.0253456
-0.000495358
0.000360923
3.14474e-05
3.98488e-05
0.000169197
0.000219595
0.000648766
0.00144595
0.0385507
0.00144803
0.000651455
0.000222532
0.000169576
0.000597246
0.000868568
0.00133731
0.00711125
0.060325
0.00711395
0.00134159
0.000873455
0.000598212
0.00204814
0.00295567
0.00434057
0.0206093
0.0930368
0.0206124
0.00434642
0.00296268
0.00204985
0.00702082
0.00953456
0.0143597
0.047074
0.138454
0.0470771
0.014367
0.00954389
0.00702371
0.0204596
0.0260447
0.037835
0.0906794
0.197012
0.0906821
0.0378433
0.026056
0.0204636
0.0484035
0.0584473
0.0801268
0.152796
0.26744
0.152798
0.0801356
0.0584604
0.0484089
0.0953272
0.110482
0.143044
0.231372
0.346866
0.231373
0.143053
0.110496
0.0953335
0.162056
0.18196
0.224188
0.32173
0.431447
0.32173
0.224196
0.181974
0.162063
0.245384
0.268891
0.318126
0.417826
0.516532
0.417826
0.318133
0.268905
0.245392
0.339161
0.364787
0.41795
0.515086
0.601149
0.515084
0.417956
0.3648
0.339169
0.435947
0.462917
0.518669
0.605148
0.669677
0.605146
0.518674
0.462928
0.435954
0.528669
0.555052
0.608562
0.70996
0.801096
0.709957
0.608565
0.555061
0.528676
0.610439
0.64167
0.729969
0.747602
0.474148
0.747601
0.729971
0.641678
0.610445
0.682564
0.721953
0.681742
0.243475
-0.0300971
0.243476
0.681744
0.721959
0.68257
0.745029
0.765464
0.535628
0.0244956
-0.0366012
0.0244972
0.535631
0.765469
0.745034
0.794784
0.786439
0.449609
-0.0384113
-0.0405971
-0.0384097
0.449613
0.786444
0.794788
0.83314
0.8008
0.41639
-0.0487485
-0.0409657
-0.0487466
0.416395
0.800805
0.833144
0.863004
0.813704
0.410844
-0.0414789
-0.0396218
-0.0414766
0.410851
0.813708
0.863007
0.88668
0.825581
0.417305
-0.0280941
-0.0370557
-0.0280914
0.417312
0.825584
0.886682
0.905638
0.835994
0.428498
-0.0122124
-0.0332472
-0.0122093
0.428505
0.835997
0.90564
0.920807
0.844691
0.441629
0.0054726
-0.0277745
0.00547596
0.441636
0.844694
0.920809
0.932847
0.851666
0.455818
0.0254895
-0.019715
0.0254931
0.455826
0.851669
0.932849
0.942295
0.857033
0.470922
0.0488779
-0.00767017
0.0488815
0.470929
0.857036
0.942296
0.949619
0.860907
0.486971
0.0768086
0.00998562
0.0768122
0.486977
0.86091
0.94962
0.955208
0.863377
0.504034
0.110281
0.0346715
0.110284
0.504039
0.86338
0.955209
0.959324
0.864747
0.523189
0.151424
0.0689349
0.151426
0.523194
0.864749
0.959325
0.962064
0.865981
0.546112
0.200087
0.111556
0.20009
0.546116
0.865983
0.962064
0.963807
0.870547
0.583687
0.277409
0.189028
0.27741
0.583689
0.870548
0.963808
0.96765
0.885226
0.625439
0.329797
0.234312
0.329798
0.62544
0.885227
0.967651
0.975644
0.919637
0.69747
0.372313
0.237382
0.372314
0.69747
0.919637
0.975644
0.987895
0.970934
0.850799
0.556202
0.347828
0.556202
0.850799
0.970934
0.987896
-1.34927e-06
2.25449e-05
0.000667343
-0.000177229
0.0322462
-0.000175396
0.000668938
2.36137e-05
-1.53317e-06
1.06191e-05
5.46442e-05
0.000706567
0.000390128
0.0362629
0.000392453
0.000708792
5.65436e-05
1.11341e-05
3.00342e-05
0.000252786
0.000921651
0.00263186
0.047674
0.00263482
0.000924991
0.000255961
3.17275e-05
0.000219719
0.000824982
0.0015477
0.00870213
0.0684072
0.00870575
0.0015526
0.000830073
0.000223123
0.000868776
0.00221186
0.00402991
0.0223145
0.100355
0.0223187
0.0040365
0.00221931
0.000874369
0.00295599
0.00607093
0.0120901
0.0479976
0.144733
0.0480019
0.0120983
0.00608099
0.00296405
0.009535
0.0164613
0.0313652
0.0894768
0.201545
0.0894807
0.0313746
0.0164738
0.0095457
0.0260453
0.0391901
0.0672345
0.148113
0.269369
0.148116
0.0672447
0.0392048
0.0260584
0.058448
0.0794002
0.122433
0.222311
0.345502
0.222313
0.122444
0.0794164
0.0584632
0.110483
0.139212
0.195953
0.308018
0.426388
0.30802
0.195963
0.139229
0.110499
0.181961
0.216849
0.283506
0.399868
0.50823
0.399868
0.283515
0.216865
0.181978
0.268892
0.307365
0.379027
0.49238
0.587261
0.49238
0.379035
0.307381
0.268909
0.364788
0.404173
0.47601
0.580869
0.661328
0.580868
0.476016
0.404188
0.364804
0.462918
0.500673
0.569461
0.662241
0.724539
0.662239
0.569466
0.500686
0.462932
0.555052
0.590761
0.652223
0.731161
0.793678
0.731159
0.652227
0.590772
0.555065
0.641671
0.669536
0.733596
0.819947
0.802502
0.819946
0.733598
0.669545
0.641681
0.721954
0.740192
0.782012
0.650071
0.335024
0.650071
0.782014
0.740198
0.721962
0.765465
0.795534
0.768456
0.423052
0.0938995
0.423054
0.768458
0.795539
0.765472
0.78644
0.832441
0.74509
0.310363
0.0263117
0.310366
0.745093
0.832445
0.786446
0.800801
0.856419
0.73172
0.270214
0.0178705
0.270218
0.731724
0.856422
0.800806
0.813705
0.87261
0.727209
0.2634
0.0287437
0.263404
0.727213
0.872613
0.813709
0.825582
0.883873
0.72709
0.27015
0.0460093
0.270155
0.727095
0.883876
0.825585
0.835995
0.891655
0.728556
0.282346
0.0657055
0.282351
0.728561
0.891658
0.835998
0.844692
0.896769
0.730415
0.29754
0.0874509
0.297545
0.73042
0.896772
0.844695
0.851668
0.899776
0.73247
0.315572
0.112255
0.315577
0.732474
0.899778
0.85167
0.857035
0.9011
0.734938
0.337402
0.141894
0.337407
0.734943
0.901102
0.857037
0.86091
0.901029
0.738247
0.364905
0.179177
0.36491
0.738251
0.901031
0.860912
0.86338
0.899534
0.742857
0.401146
0.22849
0.401149
0.74286
0.899535
0.863382
0.86475
0.896742
0.751544
0.453949
0.30017
0.453952
0.751547
0.896744
0.864751
0.865985
0.890615
0.761493
0.528046
0.401622
0.528048
0.761495
0.890616
0.865986
0.87055
0.888992
0.820932
0.695712
0.622994
0.695713
0.820933
0.888993
0.870552
0.885229
0.890915
0.839496
0.750874
0.695766
0.750875
0.839496
0.890915
0.88523
0.919639
0.915427
0.816239
0.630469
0.540442
0.630469
0.816239
0.915428
0.91964
0.970935
0.974275
0.888151
0.613325
0.409044
0.613324
0.888151
0.974276
0.970936
0.000191932
0.000667551
-0.000840481
0.0130451
0.099091
0.0130479
-0.000837391
0.00066934
0.000191966
0.000192936
0.000706965
-0.00067119
0.0169499
0.109198
0.0169533
-0.000667233
0.000709642
0.000193524
0.000359917
0.000922315
0.000288361
0.0280257
0.132605
0.0280294
0.000293428
0.000926398
0.000361883
0.000649429
0.00154874
0.00421946
0.0496724
0.169786
0.0496762
0.00422579
0.00155482
0.000653448
0.00133842
0.00403141
0.0152974
0.0851464
0.219826
0.0851498
0.0153049
0.00403967
0.00134473
0.00434219
0.0120921
0.0387689
0.136138
0.280723
0.13614
0.038777
0.0121026
0.00435099
0.0143619
0.0313676
0.0789188
0.201935
0.349672
0.201937
0.078927
0.0313799
0.014373
0.0378377
0.0672374
0.137269
0.279569
0.423437
0.27957
0.137277
0.0672509
0.0378509
0.08013
0.122437
0.212044
0.364641
0.498721
0.364641
0.21205
0.122451
0.0801446
0.143048
0.195957
0.298853
0.452309
0.572473
0.452308
0.298859
0.19597
0.143063
0.224191
0.283509
0.391972
0.538086
0.642109
0.538085
0.391977
0.283522
0.224207
0.31813
0.37903
0.485603
0.618348
0.705664
0.618346
0.485607
0.379042
0.318144
0.417954
0.476013
0.574704
0.690363
0.761541
0.690361
0.574706
0.476023
0.417967
0.518672
0.569464
0.65557
0.752945
0.809789
0.752942
0.655571
0.569472
0.518683
0.608564
0.652225
0.725124
0.80244
0.843365
0.802438
0.725125
0.652232
0.608574
0.729972
0.733598
0.782255
0.849048
0.896275
0.849046
0.782255
0.733603
0.729979
0.681744
0.782014
0.828476
0.870274
0.823047
0.870273
0.828477
0.782018
0.68175
0.53563
0.768457
0.859536
0.839526
0.672226
0.839525
0.859536
0.76846
0.535635
0.449611
0.745092
0.877256
0.806333
0.586795
0.806334
0.877256
0.745095
0.449615
0.416391
0.731722
0.886911
0.78669
0.554379
0.786691
0.886911
0.731724
0.416396
0.410846
0.727211
0.891886
0.77753
0.548688
0.777533
0.891886
0.727213
0.410851
0.417307
0.727092
0.893843
0.773757
0.554381
0.773759
0.893844
0.727094
0.417312
0.428501
0.728559
0.893627
0.772481
0.564752
0.772484
0.893628
0.728561
0.428505
0.441632
0.730418
0.89185
0.772392
0.577431
0.772395
0.891851
0.730421
0.441636
0.455822
0.732473
0.889053
0.773435
0.592204
0.773437
0.889054
0.732475
0.455826
0.470926
0.734942
0.885726
0.776243
0.610131
0.776245
0.885727
0.734945
0.47093
0.486975
0.738252
0.882324
0.782038
0.633405
0.78204
0.882325
0.738254
0.486979
0.504039
0.742862
0.879243
0.793109
0.66617
0.793111
0.879244
0.742863
0.504042
0.523195
0.75155
0.878215
0.814271
0.716509
0.814272
0.878216
0.751551
0.523197
0.546118
0.761498
0.878958
0.857701
0.802185
0.857701
0.878959
0.761499
0.54612
0.583693
0.820936
0.961577
0.974393
0.973811
0.974393
0.961577
0.820937
0.583694
0.625445
0.839499
0.839499
0.625445
0.697475
0.816243
0.861863
0.758454
0.656645
0.758454
0.861863
0.816243
0.697476
0.850803
0.888155
0.894982
0.723846
0.548599
0.723846
0.894981
0.888155
0.850803
0.908105
0.732959
0.54008
0.732958
0.908104
0.913016
0.744707
0.552877
0.744707
0.913014
0.915213
0.754327
0.568721
0.754327
0.915212
0.916524
0.762637
0.584651
0.762637
0.916522
0.917629
0.770369
0.600239
0.770369
0.917627
0.918735
0.77786
0.615506
0.777859
0.918734
0.919908
0.785228
0.630472
0.785228
0.919907
0.921166
0.792518
0.645156
0.792518
0.921165
0.922494
0.799689
0.659471
0.799689
0.922493
0.923968
0.806974
0.673841
0.806975
0.923967
0.925222
0.813182
0.686064
0.813182
0.925221
0.927895
0.824075
0.706919
0.824075
0.927894
-0.00112234
-0.00017585
0.0130467
0.125683
0.321549
0.125685
0.0130511
-0.000172697
-0.00112197
-0.00101347
0.000392146
0.0169519
0.138221
0.337062
0.138223
0.016957
0.00039633
-0.00101163
-0.000495143
0.00263468
0.0280281
0.166484
0.368388
0.166485
0.0280338
0.0026402
-0.000491846
0.00144845
0.00870592
0.0496754
0.210444
0.412477
0.210445
0.0496813
0.00871303
0.00145361
0.00711479
0.0223194
0.0851497
0.268161
0.465162
0.26816
0.0851555
0.022328
0.00712174
0.020614
0.0480034
0.136141
0.33629
0.522491
0.336288
0.136146
0.0480132
0.0206227
0.0470797
0.0894833
0.201938
0.410722
0.581192
0.41072
0.201943
0.0894937
0.0470899
0.090686
0.14812
0.279573
0.487328
0.638759
0.487325
0.279576
0.14813
0.0906972
0.152803
0.222318
0.364645
0.562496
0.693359
0.562493
0.364646
0.222328
0.152815
0.231379
0.308025
0.452312
0.633406
0.743712
0.633403
0.452313
0.308034
0.231391
0.321737
0.399874
0.538089
0.698065
0.788978
0.698062
0.538089
0.399882
0.321748
0.417833
0.492386
0.61835
0.755236
0.828683
0.755232
0.618349
0.492393
0.417843
0.515092
0.580874
0.690365
0.804256
0.862565
0.804253
0.690364
0.580879
0.5151
0.605153
0.662245
0.752946
0.844967
0.890805
0.844964
0.752944
0.662249
0.60516
0.709964
0.731164
0.802441
0.877322
0.912502
0.877319
0.802439
0.731167
0.709969
0.747605
0.81995
0.849049
0.900892
0.930193
0.900889
0.849047
0.819952
0.747609
0.243476
0.650073
0.870275
0.922831
0.947722
0.922829
0.870274
0.650075
0.24348
0.0244962
0.423054
0.839527
0.940367
0.949738
0.940365
0.839526
0.423056
0.0244989
-0.0384109
0.310364
0.806335
0.950332
0.945052
0.950331
0.806334
0.310367
-0.0384085
-0.0487482
0.270216
0.786691
0.954826
0.940913
0.954825
0.78669
0.270218
-0.0487454
-0.0414786
0.263402
0.777532
0.956157
0.93843
0.956156
0.777531
0.263404
-0.0414756
-0.0280939
0.270152
0.773759
0.955621
0.936893
0.95562
0.773758
0.270154
-0.0280906
-0.0122123
0.282348
0.772484
0.953881
0.935701
0.953881
0.772483
0.28235
-0.0122088
0.00547266
0.297542
0.772395
0.951394
0.934614
0.951394
0.772395
0.297544
0.00547615
0.0254895
0.315575
0.773439
0.948552
0.933725
0.948552
0.773438
0.315577
0.0254929
0.0488778
0.337405
0.776247
0.945818
0.933409
0.945817
0.776247
0.337407
0.048881
0.0768086
0.364909
0.782043
0.943823
0.93433
0.943822
0.782043
0.364911
0.0768114
0.110281
0.40115
0.793114
0.943594
0.937633
0.943594
0.793114
0.401151
0.110283
0.151424
0.453953
0.814276
0.946873
0.945215
0.946873
0.814275
0.453954
0.151425
0.200088
0.528051
0.857705
0.958862
0.96077
0.958862
0.857705
0.528051
0.200089
0.27741
0.695716
0.974395
0.975093
0.978033
0.975092
0.974395
0.695716
0.27741
0.329799
0.750878
0.750878
0.329798
0.372316
0.630473
0.758458
0.808879
0.754766
0.808879
0.758457
0.630472
0.372315
0.556206
0.613328
0.72385
0.789782
0.722273
0.789782
0.723849
0.613328
0.556204
0.732962
0.782885
0.711969
0.782884
0.732963
0.74471
0.784062
0.714271
0.784058
0.74471
0.75433
0.788003
0.720824
0.787999
0.75433
0.76264
0.792855
0.72873
0.792851
0.76264
0.770372
0.79803
0.737015
0.798026
0.770371
0.777862
0.803347
0.745386
0.803344
0.777861
0.785231
0.808744
0.75374
0.80874
0.78523
0.792521
0.814199
0.762049
0.814196
0.792519
0.799691
0.819654
0.770238
0.819651
0.79969
0.806977
0.825304
0.778577
0.825301
0.806976
0.813184
0.830122
0.78566
0.830119
0.813183
0.824077
0.838924
0.798209
0.838922
0.824076
0.016669
0.0322505
0.0990956
0.32155
0.569048
0.321548
0.099099
0.0322539
0.0166693
0.0185082
0.0362682
0.109203
0.337063
0.580937
0.337061
0.109206
0.0362726
0.0185106
0.0253501
0.0476803
0.13261
0.368388
0.603372
0.368387
0.132614
0.0476856
0.0253539
0.0385564
0.0684145
0.169791
0.412478
0.633255
0.412475
0.169795
0.0684207
0.0385617
0.0603317
0.100363
0.219831
0.465162
0.667364
0.46516
0.219834
0.10037
0.0603382
0.0930445
0.144742
0.280728
0.52249
0.703215
0.522488
0.28073
0.144749
0.093052
0.138463
0.201554
0.349676
0.581191
0.739109
0.581189
0.349678
0.201562
0.138471
0.197021
0.269377
0.423441
0.638758
0.77391
0.638755
0.423443
0.269385
0.19703
0.267449
0.345509
0.498724
0.693358
0.806832
0.693355
0.498725
0.345517
0.267458
0.346874
0.426395
0.572475
0.743711
0.837304
0.743708
0.572475
0.426402
0.346882
0.431454
0.508237
0.642111
0.788977
0.864914
0.788973
0.64211
0.508243
0.431462
0.516538
0.587267
0.705666
0.828682
0.889391
0.828678
0.705664
0.587272
0.516546
0.601154
0.661333
0.761542
0.862564
0.910582
0.862559
0.76154
0.661337
0.601161
0.669681
0.724543
0.80979
0.890804
0.92844
0.8908
0.809787
0.724546
0.669687
0.801099
0.79368
0.843365
0.912502
0.943093
0.912498
0.843363
0.793683
0.801104
0.47415
0.802505
0.896276
0.930193
0.953755
0.930189
0.896273
0.802507
0.474154
-0.0300967
0.335025
0.823048
0.947722
0.96403
0.947718
0.823047
0.335028
-0.0300948
-0.0366011
0.0939001
0.672227
0.949738
0.975046
0.949735
0.672225
0.0939021
-0.0365997
-0.0405972
0.026312
0.586796
0.945052
0.983313
0.945049
0.586795
0.0263141
-0.0405956
-0.0409659
0.0178705
0.55438
0.940913
0.988064
0.94091
0.554378
0.0178727
-0.0409641
-0.0396222
0.0287435
0.548689
0.938431
0.990156
0.938428
0.548687
0.0287456
-0.0396201
-0.0370564
0.0460088
0.554382
0.936894
0.990524
0.936891
0.55438
0.0460108
-0.0370541
-0.0332484
0.0657046
0.564754
0.935702
0.989753
0.935699
0.564752
0.0657065
-0.0332459
-0.0277762
0.0874497
0.577433
0.934615
0.988311
0.934613
0.57743
0.0874514
-0.0277737
-0.0197174
0.112254
0.592206
0.933727
0.986445
0.933725
0.592204
0.112255
-0.0197149
-0.00767332
0.141892
0.610133
0.933411
0.984333
0.933409
0.610131
0.141893
-0.00767098
0.00998164
0.179175
0.633408
0.934332
0.982161
0.93433
0.633406
0.179176
0.00998377
0.0346667
0.228488
0.666173
0.937635
0.980162
0.937634
0.666172
0.228488
0.0346686
0.0689294
0.300168
0.716512
0.945216
0.978667
0.945215
0.716511
0.300169
0.0689309
0.11155
0.401621
0.802188
0.960771
0.978554
0.960771
0.802187
0.40162
0.111551
0.189023
0.622995
0.973813
0.978034
0.982979
0.978034
0.973812
0.622994
0.189023
0.234306
0.695767
0.695766
0.234305
0.237376
0.54044
0.656645
0.754766
0.80217
0.754765
0.656644
0.54044
0.237375
0.347822
0.409039
0.548597
0.722273
0.79795
0.722271
0.548597
0.409039
0.347821
0.540078
0.711968
0.795893
0.711965
0.540079
0.552874
0.714271
0.79709
0.714261
0.552874
0.568718
0.720823
0.799989
0.720813
0.568717
0.584648
0.728729
0.803705
0.728718
0.584647
0.600237
0.737014
0.807808
0.737004
0.600235
0.615503
0.745385
0.812129
0.745375
0.615502
0.630469
0.753739
0.816597
0.753729
0.630468
0.645154
0.762048
0.821184
0.762038
0.645152
0.659469
0.770237
0.825831
0.770228
0.659467
0.673839
0.778576
0.83072
0.778568
0.673837
0.686062
0.78566
0.834885
0.785651
0.68606
0.706917
0.798208
0.842788
0.7982
0.706915
-0.00112101
-0.000172094
0.0130525
0.125687
0.321548
0.125687
0.0130546
-0.000170682
-0.00112123
-0.00101171
0.000396521
0.0169584
0.138225
0.337061
0.138225
0.0169609
0.000398519
-0.0010109
-0.000492442
0.00263995
0.028035
0.166487
0.368386
0.166487
0.0280377
0.00264267
-0.000490869
0.00145229
0.00871213
0.0496822
0.210446
0.412475
0.210445
0.049685
0.00871572
0.00145492
0.00711962
0.0223262
0.0851558
0.268161
0.465159
0.26816
0.0851586
0.0223306
0.00712326
0.0206193
0.0480102
0.136146
0.336288
0.522486
0.336287
0.136148
0.0480153
0.0206242
0.0470849
0.0894895
0.201942
0.410719
0.581187
0.410717
0.201944
0.089495
0.0470908
0.0906904
0.148124
0.279574
0.487323
0.638754
0.487321
0.279576
0.14813
0.0906974
0.152806
0.222321
0.364644
0.562491
0.693354
0.562488
0.364645
0.222327
0.152814
0.231381
0.308027
0.452311
0.633401
0.743706
0.633397
0.452311
0.308032
0.231389
0.321737
0.399874
0.538086
0.69806
0.788972
0.698055
0.538086
0.399879
0.321745
0.417832
0.492385
0.618347
0.75523
0.828677
0.755225
0.618346
0.492389
0.41784
0.51509
0.580872
0.690362
0.804251
0.862559
0.804246
0.690359
0.580876
0.515097
0.60515
0.662242
0.752943
0.844963
0.890799
0.844957
0.75294
0.662246
0.605157
0.709961
0.731161
0.802438
0.877318
0.912497
0.877313
0.802435
0.731164
0.709966
0.747604
0.819948
0.849046
0.900889
0.930188
0.900883
0.849044
0.81995
0.747608
0.243477
0.650073
0.870273
0.922828
0.947718
0.922823
0.870271
0.650074
0.24348
0.0244975
0.423055
0.839526
0.940365
0.949734
0.94036
0.839524
0.423057
0.0244993
-0.0384098
0.310366
0.806335
0.95033
0.945049
0.950326
0.806332
0.310367
-0.0384081
-0.048747
0.270218
0.786692
0.954825
0.94091
0.954821
0.786689
0.270219
-0.0487452
-0.0414773
0.263404
0.777533
0.956156
0.938428
0.956153
0.777529
0.263404
-0.0414754
-0.0280927
0.270154
0.773759
0.95562
0.936892
0.955618
0.773756
0.270154
-0.0280907
-0.0122113
0.282349
0.772484
0.953881
0.9357
0.953879
0.77248
0.282349
-0.0122092
0.00547321
0.297542
0.772395
0.951394
0.934614
0.951392
0.772391
0.297542
0.00547517
0.0254893
0.315574
0.773437
0.948552
0.933726
0.948551
0.773434
0.315574
0.0254912
0.0488767
0.337403
0.776245
0.945818
0.93341
0.945816
0.776242
0.337402
0.0488784
0.0768062
0.364905
0.78204
0.943823
0.934332
0.943822
0.782037
0.364905
0.0768077
0.110277
0.401144
0.79311
0.943594
0.937635
0.943593
0.793108
0.401144
0.110278
0.151418
0.453946
0.814272
0.946873
0.945217
0.946873
0.81427
0.453946
0.151419
0.200081
0.528043
0.857702
0.958863
0.960772
0.958862
0.857701
0.528042
0.200081
0.277402
0.69571
0.974394
0.975093
0.978034
0.975093
0.974394
0.695709
0.277401
0.329789
0.750873
0.750872
0.329789
0.372304
0.630464
0.758451
0.808876
0.754765
0.808876
0.75845
0.630464
0.372304
0.556193
0.613317
0.723841
0.789778
0.722271
0.789779
0.723842
0.613318
0.556193
0.732953
0.78288
0.711965
0.78288
0.732956
0.744702
0.784054
0.714261
0.78405
0.744703
0.754322
0.787995
0.720813
0.787991
0.754323
0.762632
0.792848
0.728718
0.792844
0.762633
0.770364
0.798022
0.737004
0.798019
0.770365
0.777855
0.80334
0.745375
0.803337
0.777856
0.785224
0.808737
0.753729
0.808734
0.785224
0.792514
0.814192
0.762038
0.81419
0.792515
0.799685
0.819648
0.770228
0.819646
0.799685
0.806971
0.825298
0.778567
0.825296
0.806971
0.813178
0.830116
0.785651
0.830114
0.813179
0.824072
0.838919
0.7982
0.838917
0.824072
0.000192476
0.000670691
-0.000834548
0.0130541
0.0991003
0.0130549
-0.000833479
0.00067124
0.000192335
0.000193688
0.000710922
-0.000663976
0.0169602
0.109208
0.0169612
-0.000662675
0.000711811
0.000193868
0.000362209
0.000927943
0.000297326
0.0280371
0.132615
0.0280381
0.00029897
0.000929289
0.00036277
0.00065395
0.00155673
0.00423046
0.0496846
0.169796
0.0496855
0.00423254
0.00155873
0.000655192
0.00134546
0.00404196
0.0153102
0.0851585
0.219835
0.0851591
0.0153127
0.00404472
0.00134733
0.00435166
0.012105
0.0387827
0.136149
0.280731
0.136149
0.0387855
0.0121086
0.00435443
0.0143735
0.0313822
0.0789328
0.201944
0.349678
0.201944
0.0789356
0.0313865
0.014377
0.0378507
0.0672528
0.137282
0.279577
0.423443
0.279576
0.137285
0.0672575
0.0378551
0.0801435
0.122452
0.212055
0.364647
0.498725
0.364646
0.212057
0.122457
0.0801485
0.143061
0.195971
0.298863
0.452313
0.572475
0.452311
0.298865
0.195976
0.143066
0.224204
0.283521
0.39198
0.538088
0.64211
0.538086
0.391981
0.283526
0.224209
0.31814
0.379041
0.485609
0.618349
0.705664
0.618346
0.485609
0.379045
0.318146
0.417962
0.476021
0.574708
0.690363
0.761539
0.69036
0.574708
0.476025
0.417968
0.518678
0.56947
0.655572
0.752943
0.809787
0.75294
0.655572
0.569474
0.518683
0.608569
0.652229
0.725126
0.802439
0.843362
0.802435
0.725125
0.652232
0.608573
0.729974
0.7336
0.782256
0.849047
0.896273
0.849044
0.782255
0.733603
0.729978
0.681746
0.782015
0.828477
0.870273
0.823046
0.870271
0.828476
0.782017
0.681749
0.535632
0.768459
0.859536
0.839525
0.672225
0.839524
0.859535
0.768461
0.535635
0.449614
0.745094
0.877256
0.806334
0.586795
0.806333
0.877255
0.745095
0.449616
0.416395
0.731724
0.886911
0.78669
0.554379
0.78669
0.88691
0.731724
0.416397
0.41085
0.727213
0.891886
0.777531
0.548688
0.777531
0.891885
0.727213
0.410851
0.41731
0.727094
0.893844
0.773758
0.554381
0.773758
0.893842
0.727094
0.417312
0.428503
0.72856
0.893628
0.772483
0.564753
0.772483
0.893627
0.72856
0.428504
0.441633
0.730419
0.891851
0.772394
0.577432
0.772394
0.89185
0.730418
0.441634
0.455822
0.732472
0.889053
0.773437
0.592206
0.773438
0.889052
0.732472
0.455823
0.470924
0.73494
0.885726
0.776246
0.610133
0.776246
0.885725
0.73494
0.470925
0.486971
0.738248
0.882324
0.782041
0.633408
0.782042
0.882323
0.738248
0.486972
0.504033
0.742857
0.879243
0.793112
0.666174
0.793113
0.879242
0.742856
0.504033
0.523186
0.751543
0.878214
0.814274
0.716514
0.814274
0.878213
0.751543
0.523187
0.546108
0.761491
0.878958
0.857705
0.80219
0.857705
0.878957
0.761491
0.546108
0.583682
0.82093
0.961577
0.974396
0.973814
0.974395
0.961577
0.82093
0.583682
0.625433
0.839493
0.839493
0.625433
0.697463
0.816235
0.86186
0.758454
0.656645
0.758454
0.86186
0.816235
0.697464
0.850795
0.888148
0.894978
0.723844
0.548596
0.723845
0.89498
0.888149
0.850796
0.908101
0.732958
0.540078
0.732959
0.908104
0.913012
0.744705
0.552873
0.744706
0.913014
0.915209
0.754325
0.568716
0.754326
0.915211
0.91652
0.762635
0.584646
0.762636
0.916522
0.917625
0.770367
0.600234
0.770368
0.917627
0.918731
0.777857
0.615501
0.777858
0.918734
0.919904
0.785226
0.630467
0.785227
0.919907
0.921163
0.792516
0.645152
0.792517
0.921165
0.922491
0.799686
0.659466
0.799687
0.922493
0.923964
0.806972
0.673837
0.806973
0.923966
0.925219
0.813179
0.686059
0.813181
0.925221
0.927891
0.824072
0.706914
0.824074
0.927894
-8.96644e-07
2.47792e-05
0.000670728
-0.000171038
0.0322551
-0.000170522
0.000671239
2.5123e-05
-1.0357e-06
1.15125e-05
5.79106e-05
0.000711189
0.00039811
0.0362738
0.000398686
0.000711807
5.85108e-05
1.16962e-05
3.2461e-05
0.000257853
0.000928438
0.00264224
0.0476868
0.00264289
0.000929285
0.000258749
3.29549e-05
0.000224412
0.000832821
0.00155757
0.00871536
0.0684219
0.00871601
0.00155873
0.000834214
0.000225486
0.000876371
0.00222311
0.0040432
0.0223305
0.100371
0.022331
0.00404473
0.00222505
0.000877951
0.00296668
0.00608585
0.0121068
0.0480157
0.14475
0.0480159
0.0121086
0.00608842
0.00296905
0.00954893
0.0164796
0.0313845
0.089496
0.201562
0.0894956
0.0313865
0.0164827
0.00955187
0.0260619
0.0392112
0.0672556
0.148132
0.269385
0.148131
0.0672576
0.0392148
0.0260656
0.0584668
0.0794231
0.122455
0.222329
0.345517
0.222327
0.122457
0.0794269
0.058471
0.110503
0.139235
0.195974
0.308035
0.426402
0.308033
0.195976
0.139239
0.110507
0.181981
0.216871
0.283525
0.399882
0.508243
0.39988
0.283526
0.216875
0.181985
0.268911
0.307386
0.379044
0.492392
0.587271
0.49239
0.379045
0.30739
0.268916
0.364805
0.404192
0.476024
0.580879
0.661336
0.580876
0.476025
0.404195
0.36481
0.462932
0.500689
0.569473
0.662248
0.724546
0.662246
0.569474
0.500692
0.462937
0.555064
0.590774
0.652232
0.731166
0.793683
0.731164
0.652232
0.590776
0.555068
0.64168
0.669546
0.733603
0.819952
0.802507
0.81995
0.733603
0.669548
0.641684
0.72196
0.740199
0.782018
0.650075
0.335028
0.650075
0.782018
0.740201
0.721963
0.765471
0.79554
0.76846
0.423056
0.093902
0.423057
0.768461
0.795541
0.765473
0.786445
0.832446
0.745094
0.310366
0.0263139
0.310368
0.745095
0.832447
0.786447
0.800805
0.856422
0.731723
0.270217
0.0178724
0.27022
0.731725
0.856423
0.800807
0.813709
0.872613
0.727212
0.263403
0.0287453
0.263406
0.727214
0.872613
0.81371
0.825584
0.883876
0.727093
0.270153
0.0460104
0.270156
0.727095
0.883876
0.825585
0.835997
0.891657
0.72856
0.282348
0.065706
0.282351
0.728562
0.891658
0.835998
0.844693
0.896771
0.730418
0.297542
0.0874509
0.297545
0.730421
0.896771
0.844694
0.851668
0.899778
0.732473
0.315574
0.112255
0.315577
0.732475
0.899778
0.851669
0.857034
0.901101
0.734941
0.337403
0.141893
0.337406
0.734943
0.901102
0.857035
0.860908
0.90103
0.73825
0.364906
0.179175
0.364909
0.738252
0.90103
0.860909
0.863378
0.899534
0.742859
0.401146
0.228488
0.401149
0.74286
0.899534
0.863378
0.864746
0.896742
0.751546
0.453949
0.300168
0.453951
0.751548
0.896742
0.864747
0.86598
0.890614
0.761494
0.528047
0.401621
0.528048
0.761495
0.890614
0.865981
0.870546
0.88899
0.820933
0.695714
0.622995
0.695714
0.820933
0.88899
0.870546
0.885224
0.890912
0.839496
0.750876
0.695768
0.750876
0.839496
0.890913
0.885225
0.919635
0.915425
0.816238
0.630468
0.54044
0.630468
0.816239
0.915426
0.919636
0.970933
0.974275
0.888151
0.613321
0.409037
0.613322
0.888152
0.974275
0.970934
1.11352e-05
-1.17739e-06
0.000192229
-0.00112137
0.01667
-0.00112118
0.000192334
-1.0354e-06
1.11267e-05
1.53608e-05
1.14819e-05
0.000193755
-0.00101105
0.0185113
-0.00101085
0.000193865
1.1696e-05
1.55675e-05
4.04069e-05
3.24956e-05
0.000362503
-0.000491065
0.0253546
-0.000490788
0.000362766
3.29544e-05
4.10144e-05
0.000170733
0.000224537
0.000654627
0.00145466
0.0385624
0.00145505
0.000655181
0.000225483
0.000172135
0.000600112
0.000876542
0.00134651
0.00712303
0.0603389
0.00712348
0.00134732
0.000877946
0.00060225
0.00205255
0.00296699
0.00435331
0.0206241
0.0930528
0.0206245
0.00435441
0.00296904
0.00205578
0.00702716
0.00954933
0.0143758
0.0470912
0.138472
0.0470913
0.014377
0.00955185
0.00703116
0.0204677
0.0260625
0.0378538
0.0906983
0.19703
0.090698
0.0378551
0.0260656
0.0204727
0.0484134
0.0584676
0.0801474
0.152816
0.267458
0.152815
0.0801485
0.058471
0.048419
0.0953381
0.110504
0.143066
0.231391
0.346883
0.23139
0.143067
0.110507
0.0953444
0.162068
0.181982
0.224209
0.321748
0.431462
0.321746
0.224209
0.181985
0.162074
0.245396
0.268912
0.318146
0.417842
0.516546
0.41784
0.318146
0.268916
0.245402
0.339172
0.364807
0.417968
0.5151
0.601161
0.515097
0.417968
0.36481
0.339178
0.435957
0.462934
0.518684
0.605159
0.669687
0.605157
0.518684
0.462936
0.435962
0.528678
0.555066
0.608574
0.709968
0.801104
0.709966
0.608573
0.555068
0.528683
0.610447
0.641682
0.729979
0.747609
0.474154
0.747608
0.729978
0.641684
0.610451
0.682571
0.721962
0.681749
0.243479
-0.030095
0.24348
0.681749
0.721963
0.682574
0.745035
0.765472
0.535634
0.0244986
-0.0365999
0.0244994
0.535635
0.765473
0.745037
0.794788
0.786446
0.449614
-0.0384089
-0.0405959
-0.0384081
0.449616
0.786447
0.79479
0.833144
0.800805
0.416395
-0.0487461
-0.0409644
-0.0487452
0.416398
0.800807
0.833146
0.863007
0.813709
0.410849
-0.0414765
-0.0396205
-0.0414754
0.410853
0.81371
0.863008
0.886683
0.825584
0.41731
-0.0280919
-0.0370547
-0.0280906
0.417313
0.825586
0.886683
0.90564
0.835997
0.428503
-0.0122105
-0.0332467
-0.0122091
0.428506
0.835999
0.90564
0.920809
0.844693
0.441633
0.00547387
-0.0277747
0.00547548
0.441636
0.844695
0.920809
0.932849
0.851669
0.455822
0.02549
-0.0197162
0.0254917
0.455826
0.85167
0.932849
0.942296
0.857035
0.470925
0.0488773
-0.00767258
0.048879
0.470928
0.857037
0.942296
0.94962
0.860909
0.486973
0.0768069
0.0099818
0.0768086
0.486976
0.86091
0.94962
0.955209
0.863379
0.504035
0.110278
0.0346662
0.110279
0.504038
0.86338
0.955209
0.959325
0.864748
0.523189
0.151419
0.0689282
0.151421
0.523191
0.864749
0.959325
0.962064
0.865982
0.546112
0.200082
0.111549
0.200083
0.546113
0.865983
0.962064
0.963807
0.870548
0.583686
0.277404
0.189021
0.277404
0.583687
0.870548
0.963808
0.967651
0.885227
0.625438
0.329792
0.234304
0.329792
0.625438
0.885227
0.967651
0.975644
0.919637
0.697468
0.372307
0.237373
0.372307
0.697469
0.919637
0.975644
0.987896
0.970934
0.850799
0.556197
0.347819
0.556197
0.850799
0.970935
0.987896
)
;

boundaryField
{
    injectionXMinus
    {
        type            calculated;
        value           nonuniform List<scalar> 2(-0.0309765 -0.0113103);
    }
    injectionXPlus
    {
        type            calculated;
        value           nonuniform List<scalar> 2(-0.0309783 -0.0113116);
    }
    injectionYMinus
    {
        type            calculated;
        value           nonuniform List<scalar> 2(-0.0309763 -0.0113102);
    }
    injectionYPlus
    {
        type            calculated;
        value           nonuniform List<scalar> 2(-0.030978 -0.0113115);
    }
    inletXMinus
    {
        type            calculated;
        value           nonuniform List<scalar> 
12
(
3.10862e-15
3.33067e-15
4.21885e-15
4.21885e-15
3.33067e-15
3.10862e-15
9.32587e-15
1.31006e-14
2.53131e-14
2.53131e-14
1.31006e-14
9.32587e-15
)
;
    }
    inletXPlus
    {
        type            calculated;
        value           nonuniform List<scalar> 
12
(
3.10862e-15
3.33067e-15
4.21885e-15
4.21885e-15
3.33067e-15
3.10862e-15
9.32587e-15
1.31006e-14
2.53131e-14