/*--------------------------------*- C++ -*----------------------------------*\
  =========                 |
  \\      /  F ield         | OpenFOAM: The Open Source CFD Toolbox
   \\    /   O peration     | Website:  https://openfoam.org
    \\  /    A nd           | Version:  6
     \\/     M anipulation  |
\*---------------------------------------------------------------------------*/
FoamFile
{
    version     2.0;
    format      ascii;
    class       volScalarField;
    location    "0.4";
    object      alpha_gas;
}
// * * * * * * * * * * * * * * * * * * * * * * * * * * * * * * * * * * * * * //

dimensions      [0 0 0 0 0 0 0];

internalField   nonuniform List<scalar> 
3029
(
-3.20117e-15
-3.38398e-15
-4.26325e-15
-5.44188e-15
-8.13973e-15
-5.44178e-15
-4.26314e-15
-3.38391e-15
-3.20107e-15
-9.42959e-15
-1.31287e-14
-2.52147e-14
-3.3265e-14
-4.39514e-14
-3.32644e-14
-2.52137e-14
-1.31281e-14
-9.42923e-15
-2.48897e-14
-3.99645e-14
-4.51561e-14
4.7849e-14
2.03263e-13
4.78433e-14
-4.51571e-14
-3.99633e-14
-2.4889e-14
-8.12345e-16
5.39566e-14
6.77279e-14
-1.10669e-12
-3.25084e-12
-1.10659e-12
6.77495e-14
5.3953e-14
-8.13496e-16
-7.87493e-13
-3.02683e-12
-1.44733e-11
-4.26204e-11
-7.42001e-11
-4.26192e-11
-1.44725e-11
-3.02655e-12
-7.8743e-13
-1.45398e-11
-1.90012e-11
8.87544e-11
6.94607e-10
1.49255e-09
6.94572e-10
8.874e-11
-1.90025e-11
-1.45397e-11
1.6878e-10
3.84056e-10
-4.70603e-10
-8.31893e-09
-1.8994e-08
-8.31845e-09
-4.70436e-10
3.84056e-10
1.68776e-10
-1.8031e-09
-5.40999e-09
-2.69451e-09
6.96649e-08
1.70488e-07
6.96604e-08
-2.69586e-09
-5.40982e-09
-1.80303e-09
1.0501e-08
4.34022e-08
4.5892e-08
-5.08858e-07
-1.28719e-06
-5.08825e-07
4.59012e-08
4.34003e-08
1.05005e-08
-5.54304e-08
-3.0335e-07
-4.61757e-07
3.20768e-06
8.38155e-06
3.20748e-06
-4.61811e-07
-3.03333e-07
-5.54271e-08
1.94465e-07
1.72569e-06
3.17916e-06
-1.89497e-05
-5.01651e-05
-1.89485e-05
3.17945e-06
1.72558e-06
1.9445e-07
-6.19536e-07
-9.41375e-06
-2.03331e-05
0.000104402
0.000281994
0.000104396
-2.03344e-05
-9.41321e-06
-6.19472e-07
3.96957e-07
4.69067e-05
0.000120043
-0.000558163
-0.00154724
-0.000558139
0.000120048
4.69042e-05
3.96739e-07
8.55464e-06
-0.000227181
-0.000727928
0.00287863
0.0084944
0.00287853
-0.000727946
-0.000227171
8.55525e-06
-0.000105823
0.000946727
0.00446873
-0.0143161
-0.0497696
-0.0143157
0.00446878
0.000946687
-0.000105824
0.000685768
-0.002514
-0.0282922
0.0557047
0.417042
0.0557032
-0.0282921
-0.00251389
0.00068576
-0.00230116
-0.00978652
0.120267
0.685167
0.999119
0.685165
0.120265
-0.00978644
-0.00230111
-0.0083188
0.00851272
0.342272
0.954017
1.02529
0.954015
0.342269
0.00851222
-0.00831868
-0.0121498
0.0340366
0.46712
1.03004
1.03372
1.03004
0.467116
0.0340354
-0.0121497
-0.012834
0.0541803
0.520593
1.04369
1.03594
1.04368
0.520587
0.0541785
-0.0128338
-0.0113809
0.0680099
0.538697
1.03734
1.03575
1.03733
0.53869
0.0680077
-0.0113808
-0.00878904
0.0777064
0.541401
1.02434
1.03407
1.02434
0.541394
0.0777039
-0.00878895
-0.00565857
0.0850949
0.537551
1.00877
1.03095
1.00877
0.537544
0.0850921
-0.00565853
-0.00230404
0.091198
0.530529
0.991413
1.026
0.991409
0.530522
0.0911951
-0.00230406
0.00109958
0.0965172
0.521475
0.971739
1.01834
0.971736
0.521467
0.0965142
0.00109951
0.00442858
0.101316
0.510687
0.948698
1.00661
0.948694
0.51068
0.101314
0.00442844
0.00758009
0.105791
0.498243
0.9211
0.989181
0.921096
0.498237
0.105789
0.0075799
0.0104965
0.110121
0.484159
0.887925
0.964658
0.887921
0.484153
0.110118
0.0104962
0.0132214
0.114224
0.46741
0.847013
0.930487
0.84701
0.467405
0.114222
0.0132211
0.0159446
0.117319
0.446319
0.798459
0.887855
0.798456
0.446315
0.117317
0.0159443
0.0185426
0.116039
0.410121
0.721165
0.810297
0.721163
0.410118
0.116037
0.0185422
0.0182713
0.103694
0.36913
0.668895
0.765132
0.668894
0.369128
0.103693
0.0182708
0.0136853
0.0712301
0.297271
0.626314
0.762288
0.626313
0.29727
0.0712293
0.0136849
0.00603144
0.0232168
0.144858
0.442185
0.651931
0.442185
0.144858
0.0232164
0.00603105
-3.38398e-15
-3.41293e-15
-4.00862e-15
-4.97361e-15
-6.92273e-15
-4.9733e-15
-4.0083e-15
-3.4127e-15
-3.38388e-15
-1.31287e-14
-1.36136e-14
-2.00265e-14
-2.58686e-14
-3.36204e-14
-2.58675e-14
-2.00254e-14
-1.36129e-14
-1.31283e-14
-3.99645e-14
-4.04594e-14
-4.18381e-14
2.96577e-15
8.39988e-14
2.96198e-15
-4.18378e-14
-4.04578e-14
-3.99636e-14
5.39579e-14
3.36985e-14
9.77425e-15
-5.14689e-13
-1.56248e-12
-5.1464e-13
9.78442e-15
3.36984e-14
5.39564e-14
-3.02686e-12
-2.57991e-12
-7.19545e-12
-2.25813e-11
-4.43501e-11
-2.25805e-11
-7.19501e-12
-2.57977e-12
-3.02673e-12
-1.9001e-11
-1.43256e-11
2.0934e-11
2.71404e-10
7.2574e-10
2.71386e-10
2.09284e-11
-1.4326e-11
-1.90013e-11
3.84057e-10
2.7959e-10
1.06734e-10
-2.62248e-09
-8.30232e-09
-2.62226e-09
1.06784e-10
2.79587e-10
3.84054e-10
-5.41001e-09
-3.72919e-09
-4.71533e-09
1.56617e-08
6.65966e-08
1.56598e-08
-4.71559e-09
-3.72908e-09
-5.40993e-09
4.34025e-08
2.72755e-08
4.69814e-08
-8.15826e-08
-4.64139e-07
-8.15693e-08
4.69823e-08
2.72745e-08
4.34018e-08
-3.03352e-07
-1.70335e-07
-3.69822e-07
3.09484e-07
2.8081e-06
3.09404e-07
-3.69822e-07
-1.70328e-07
-3.03347e-07
1.72571e-06
8.15429e-07
2.24404e-06
-1.06964e-06
-1.60892e-05
-1.06919e-06
2.24402e-06
8.15391e-07
1.72567e-06
-9.41381e-06
-3.64887e-06
-1.27089e-05
1.81888e-06
8.70786e-05
1.8169e-06
-1.27087e-05
-3.64867e-06
-9.41365e-06
4.69068e-05
1.356e-05
6.60435e-05
8.78002e-06
-0.000462619
8.78835e-06
6.60423e-05
1.35593e-05
4.69061e-05
-0.000227182
-4.4873e-05
-0.000341895
-0.000191872
0.0023763
-0.000191903
-0.000341889
-4.48707e-05
-0.000227179
0.000946726
6.62977e-05
0.00165245
0.00215319
-0.011635
0.00215329
0.00165242
6.62926e-05
0.000946714
-0.00251399
0.000472467
-0.00680481
-0.0230357
0.0419313
-0.0230358
-0.00680466
0.000472463
-0.00251395
-0.00978652
-0.00466099
0.00933162
0.223588
0.593388
0.223586
0.00933126
-0.0046609
-0.0097865
0.00851263
-0.00768739
0.0761254
0.506027
0.875969
0.506025
0.0761238
-0.00768729
0.00851246
0.0340364
-0.00391826
0.136048
0.644255
0.955999
0.644251
0.136045
-0.00391828
0.034036
0.0541799
0.00401568
0.174422
0.696488
0.968898
0.696483
0.174419
0.00401548
0.0541793
0.0680093
0.0135177
0.197369
0.710335
0.960366
0.71033
0.197364
0.0135173
0.0680086
0.0777056
0.023348
0.211962
0.708557
0.944813
0.708551
0.211957
0.0233474
0.0777047
0.0850938
0.0330362
0.222238
0.700283
0.926556
0.700277
0.222233
0.0330354
0.0850928
0.0911966
0.0424059
0.230018
0.688307
0.906055
0.688301
0.230013
0.0424049
0.0911956
0.0965154
0.0513711
0.235885
0.672941
0.88232
0.672935
0.23588
0.05137
0.0965143
0.101314
0.0598972
0.239911
0.653313
0.853584
0.653307
0.239907
0.059896
0.101313
0.105789
0.0680338
0.241912
0.627608
0.817039
0.627603
0.241908
0.0680326
0.105788
0.110118
0.0761043
0.241631
0.592806
0.768293
0.592802
0.241627
0.0761031
0.110117
0.114221
0.0842354
0.236467
0.541112
0.696999
0.541109
0.236464
0.0842341
0.11422
0.117316
0.0946398
0.229316
0.467796
0.595733
0.467794
0.229314
0.0946387
0.117315
0.116035
0.099759
0.172901
0.301202
0.374813
0.301201
0.1729
0.0997581
0.116035
0.103691
0.0997346
0.155404
0.24656
0.302367
0.246559
0.155403
0.0997338
0.10369
0.0712276
0.0761385
0.17845
0.367443
0.458407
0.367443
0.178449
0.0761378
0.0712269
0.0232156
0.0197434
0.107143
0.384806
0.590516
0.384806
0.107142
0.019743
0.0232152
-4.26325e-15
-4.00862e-15
-3.9701e-15
-4.26072e-15
-5.31408e-15
-4.26058e-15
-3.96983e-15
-4.00836e-15
-4.26312e-15
-2.52148e-14
-2.00265e-14
-1.82778e-14
-1.95412e-14
-2.43967e-14
-1.95419e-14
-1.82775e-14
-2.00257e-14
-2.52141e-14
-4.51557e-14
-4.18377e-14
-4.39772e-14
-3.44096e-14
-1.55344e-14
-3.44122e-14
-4.39768e-14
-4.18357e-14
-4.51554e-14
6.77273e-14
9.7741e-15
-4.76737e-14
-1.82114e-13
-4.50956e-13
-1.82104e-13
-4.76714e-14
9.77722e-15
6.77341e-14
-1.44734e-11
-7.19552e-12
-4.19678e-12
-8.18592e-12
-1.67671e-11
-8.18566e-12
-4.1967e-12
-7.19539e-12
-1.4473e-11
8.8756e-11
2.0935e-11
1.2223e-13
4.13713e-11
1.52459e-10
4.13672e-11
1.21319e-13
2.09343e-11
8.87511e-11
-4.7062e-10
1.06727e-10
1.71014e-10
-1.19525e-10
-1.13106e-09
-1.19489e-10
1.71021e-10
1.06732e-10
-4.70567e-10
-2.69438e-09
-4.7153e-09
-3.32049e-09
-2.88888e-09
2.6845e-09
-2.88907e-09
-3.32052e-09
-4.7153e-09
-2.69475e-09
4.58912e-08
4.69813e-08
2.71688e-08
3.56042e-08
1.39251e-08
3.56047e-08
2.71688e-08
4.69813e-08
4.58936e-08
-4.61752e-07
-3.69822e-07
-1.83234e-07
-3.10351e-07
-2.95067e-07
-3.1035e-07
-1.83233e-07
-3.69821e-07
-4.61765e-07
3.17914e-06
2.24405e-06
9.30226e-07
1.97729e-06
2.45707e-06
1.97726e-06
9.30219e-07
2.24404e-06
3.17921e-06
-2.03331e-05
-1.27089e-05
-4.31843e-06
-1.15401e-05
-1.71128e-05
-1.15399e-05
-4.31838e-06
-1.27089e-05
-2.03334e-05
0.000120043
6.60436e-05
1.69186e-05
6.07269e-05
0.000104598
6.07258e-05
1.69184e-05
6.60435e-05
0.000120044
-0.000727929
-0.000341895
-6.15428e-05
-0.000314808
-0.000635465
-0.000314802
-6.15417e-05
-0.000341895
-0.000727933
0.00446874
0.00165245
0.000156811
0.00150384
0.00382196
0.00150381
0.000156808
0.00165245
0.00446875
-0.0282922
-0.0068048
-5.15224e-05
-0.00593192
-0.0228945
-0.0059318
-5.15156e-05
-0.00680478
-0.0282921
0.120267
0.00933157
-0.00223954
0.00439585
0.0791387
0.00439565
-0.00223953
0.00933151
0.120266
0.342272
0.0761251
0.000781414
0.0632482
0.258648
0.0632472
0.000781353
0.0761248
0.34227
0.46712
0.136047
0.00972796
0.117719
0.362004
0.117718
0.00972777
0.136047
0.467117
0.520592
0.174421
0.0213616
0.152993
0.405673
0.152991
0.0213613
0.174421
0.520589
0.538695
0.197367
0.033745
0.174128
0.419315
0.174125
0.0337445
0.197367
0.538692
0.541399
0.21196
0.0460864
0.187426
0.419768
0.187423
0.0460857
0.211959
0.541396
0.537549
0.222236
0.0580979
0.196416
0.414355
0.196412
0.0580971
0.222235
0.537546
0.530526
0.230015
0.0695788
0.202797
0.405743
0.202794
0.0695779
0.230014
0.530523
0.521471
0.235881
0.0803297
0.206888
0.394314
0.206884
0.0803287
0.23588
0.521468
0.510682
0.239907
0.0901586
0.20826
0.37913
0.208257
0.0901575
0.239906
0.510679
0.498239
0.241907
0.0988795
0.205873
0.358099
0.205871
0.0988784
0.241906
0.498236
0.484154
0.241626
0.106346
0.197601
0.327169
0.197598
0.106345
0.241625
0.484151
0.467404
0.236461
0.111082
0.178791
0.278359
0.17879
0.111081
0.23646
0.467402
0.446313
0.229311
0.11368
0.137491
0.194066
0.137491
0.11368
0.22931
0.446311
0.410114
0.172897
0.0354313
0.0234727
0.0243205
0.0234726
0.0354312
0.172897
0.410114
0.369124
0.1554
0.1554
0.369124
0.297266
0.178445
0.132969
0.238697
0.341973
0.238697
0.132969
0.178445
0.297265
0.144854
0.107139
0.100135
0.273508
0.450455
0.273508
0.100135
0.107139
0.144854
0.0873016
0.26446
0.459047
0.26446
0.0873021
0.0827159
0.252843
0.446282
0.252843
0.0827165
0.0808525
0.243393
0.430481
0.243393
0.0808531
0.079862
0.235259
0.414599
0.235259
0.0798627
0.0790567
0.227695
0.39906
0.227696
0.0790573
0.0782275
0.220362
0.383841
0.220362
0.0782282
0.0773103
0.21314
0.368919
0.21314
0.0773109
0.0762878
0.205985
0.354277
0.205984
0.0762884
0.0751763
0.198939
0.340002
0.198938
0.0751769
0.0739039
0.191768
0.32567
0.191768
0.0739044
0.0728252
0.185663
0.313481
0.185662
0.0728256
0.0704024
0.174917
0.292682
0.174916
0.0704028
-5.44188e-15
-4.97361e-15
-4.26072e-15
-3.55368e-15
-3.52912e-15
-3.55436e-15
-4.26099e-15
-4.97337e-15
-5.4417e-15
-3.3265e-14
-2.58685e-14
-1.95412e-14
-1.51075e-14
-1.49952e-14
-1.51086e-14
-1.95414e-14
-2.58674e-14
-3.32643e-14
4.78502e-14
2.96688e-15
-3.4409e-14
-3.89957e-14
-3.59264e-14
-3.89973e-14
-3.44082e-14
2.96863e-15
4.7848e-14
-1.10669e-12
-5.14694e-13
-1.82117e-13
-9.46109e-14
-1.06748e-13
-9.46152e-14
-1.82126e-13
-5.14691e-13
-1.10665e-12
-4.26206e-11
-2.25814e-11
-8.18605e-12
-3.43354e-12
-4.3006e-12
-3.43363e-12
-8.1862e-12
-2.25811e-11
-4.26199e-11
6.94611e-10
2.71407e-10
4.1373e-11
-1.06619e-12
6.6599e-12
-1.06639e-12
4.13754e-11
2.71405e-10
6.94596e-10
-8.31896e-09
-2.62252e-09
-1.19538e-10
1.2892e-10
9.85489e-11
1.28927e-10
-1.19557e-10
-2.6225e-09
-8.31876e-09
6.96651e-08
1.5662e-08
-2.88882e-09
-2.41624e-09
-2.70316e-09
-2.41636e-09
-2.88874e-09
1.56619e-08
6.96634e-08
-5.08859e-07
-8.15843e-08
3.56041e-08
1.8682e-08
2.42977e-08
1.86829e-08
3.5604e-08
-8.1584e-08
-5.08846e-07
3.20769e-06
3.09493e-07
-3.10352e-07
-1.22256e-07
-1.80202e-07
-1.22261e-07
-3.10354e-07
3.09492e-07
3.20761e-06
-1.89497e-05
-1.06967e-06
1.97729e-06
5.88016e-07
1.03633e-06
5.88042e-07
1.97731e-06
-1.06966e-06
-1.89492e-05
0.000104401
1.81897e-06
-1.15401e-05
-2.60695e-06
-5.60073e-06
-2.60705e-06
-1.15402e-05
1.81893e-06
0.000104399
-0.000558161
8.78002e-06
6.0727e-05
9.14436e-06
2.72382e-05
9.1447e-06
6.07276e-05
8.78031e-06
-0.000558151
0.00287862
-0.000191873
-0.000314808
-2.67057e-05
-0.000128156
-2.67065e-05
-0.000314811
-0.000191875
0.00287857
-0.0143161
0.0021532
0.00150384
2.10915e-06
0.000504697
2.10911e-06
0.00150385
0.00215321
-0.0143159
0.0557043
-0.0230358
-0.0059319
0.000641649
-0.00106448
0.000641661
-0.00593194
-0.0230358
0.0557035
0.685166
0.223587
0.0043958
-0.00470061
-0.00824827
-0.00470066
0.00439583
0.223587
0.685165
0.954016
0.506027
0.0632479
-0.00942988
-0.0013149
-0.00943
0.0632481
0.506026
0.954015
1.03004
0.644254
0.117719
-0.00802466
0.0118526
-0.00802482
0.117719
0.644253
1.03004
1.04369
0.696487
0.152992
-0.00241575
0.0235311
-0.0024159
0.152993
0.696485
1.04369
1.03734
0.710333
0.174126
0.00497933
0.0324634
0.0049792
0.174127
0.710332
1.03733
1.02434
0.708555
0.187424
0.0128882
0.0394231
0.0128881
0.187425
0.708553
1.02434
1.00877
0.700281
0.196413
0.0207737
0.0451348
0.0207736
0.196414
0.700279
1.00877
0.991413
0.688304
0.202793
0.0283329
0.0499641
0.0283327
0.202795
0.688302
0.99141
0.971739
0.672937
0.206884
0.0353394
0.0539392
0.0353393
0.206885
0.672936
0.971736
0.948698
0.653309
0.208256
0.0414896
0.0567988
0.0414895
0.208257
0.653308
0.948695
0.9211
0.627604
0.205868
0.0462966
0.0579812
0.0462965
0.205869
0.627603
0.921097
0.887925
0.592802
0.197595
0.048873
0.0564397
0.0488729
0.197596
0.592801
0.887923
0.847013
0.541107
0.178786
0.0476216
0.0503833
0.0476215
0.178787
0.541107
0.847012
0.798458
0.467791
0.137487
0.0375296
0.0362604
0.0375295
0.137487
0.467791
0.798457
0.721164
0.301198
0.0234709
0.023391
0.0206148
0.023391
0.0234709
0.301198
0.721164
0.668893
0.246556
0.246556
0.668894
0.626312
0.367439
0.238693
0.188457
0.243662
0.188457
0.238694
0.36744
0.626313
0.442181
0.384802
0.273505
0.207633
0.276269
0.207633
0.273505
0.384803
0.442183
0.264456
0.214695
0.286677
0.214695
0.264455
0.25284
0.213702
0.28447
0.213704
0.25284
0.24339
0.209941
0.278011
0.209945
0.24339
0.235256
0.205259
0.270194
0.205263
0.235256
0.227693
0.200244
0.261993
0.200247
0.227693
0.22036
0.195073
0.2537
0.195076
0.22036
0.213137
0.189811
0.245419
0.189814
0.213138
0.205982
0.18448
0.237177
0.184482
0.205983
0.198936
0.179138
0.22905
0.179141
0.198937
0.191766
0.173593
0.220769
0.173596
0.191767
0.185661
0.168868
0.213737
0.16887
0.185661
0.174915
0.160198
0.201264
0.1602
0.174916
-8.1397e-15
-6.9227e-15
-5.31407e-15
-3.52913e-15
-2.59528e-15
-3.529e-15
-5.3143e-15
-6.92273e-15
-8.13955e-15
-4.39513e-14
-3.36203e-14
-2.43967e-14
-1.49953e-14
-1.0604e-14
-1.49954e-14
-2.43962e-14
-3.36197e-14
-4.39507e-14
2.03263e-13
8.39996e-14
-1.55335e-14
-3.59263e-14
-3.13902e-14
-3.59266e-14
-1.55311e-14
8.4002e-14
2.03262e-13
-3.25081e-12
-1.56247e-12
-4.5096e-13
-1.06749e-13
-5.91639e-14
-1.06758e-13
-4.5099e-13
-1.56249e-12
-3.25076e-12
-7.42002e-11
-4.43501e-11
-1.67673e-11
-4.30071e-12
-1.98494e-12
-4.301e-12
-1.67676e-11
-4.43499e-11
-7.41997e-11
1.49255e-09
7.25741e-10
1.52462e-10
6.66053e-12
-5.14039e-12
6.66232e-12
1.5247e-10
7.25743e-10
1.49254e-09
-1.8994e-08
-8.30233e-09
-1.13108e-09
9.85481e-11
1.12307e-10
9.85471e-11
-1.13117e-09
-8.30238e-09
-1.89939e-08
1.70488e-07
6.65967e-08
2.68467e-09
-2.70319e-09
-1.61759e-09
-2.70335e-09
2.68533e-09
6.65973e-08
1.70487e-07
-1.28719e-06
-4.6414e-07
1.39242e-08
2.42981e-08
1.09555e-08
2.43e-08
1.39203e-08
-4.64144e-07
-1.28718e-06
8.38153e-06
2.8081e-06
-2.95064e-07
-1.80205e-07
-6.3245e-08
-1.80219e-07
-2.95044e-07
2.80813e-06
8.38148e-06
-5.0165e-05
-1.60892e-05
2.45706e-06
1.03634e-06
2.51797e-07
1.03643e-06
2.45697e-06
-1.60893e-05
-5.01648e-05
0.000281993
8.70785e-05
-1.71127e-05
-5.60078e-06
-8.6489e-07
-5.60122e-06
-1.71124e-05
8.70791e-05
0.000281992
-0.00154724
-0.000462618
0.000104598
2.72383e-05
1.41405e-06
2.72403e-05
0.000104597
-0.000462621
-0.00154724
0.00849439
0.00237629
-0.000635466
-0.000128157
4.86812e-06
-0.000128164
-0.000635462
0.0023763
0.00849436
-0.0497695
-0.011635
0.00382196
0.000504697
-8.66318e-05
0.000504722
0.00382196
-0.011635
-0.0497694
0.417041
0.041931
-0.0228944
-0.00106447
0.000573898
-0.00106452
-0.0228945
0.041931
0.41704
0.999119
0.593388
0.0791385
-0.00824826
-0.00174652
-0.00824838
0.0791388
0.593387
0.999118
1.02529
0.875969
0.258648
-0.00131495
-0.0071029
-0.00131486
0.258648
0.875969
1.02529
1.03372
0.955999
0.362003
0.0118525
-0.0106647
0.0118529
0.362004
0.955999
1.03372
1.03594
0.968898
0.405672
0.0235308
-0.0112225
0.0235315
0.405673
0.968897
1.03594
1.03575
0.960366
0.419314
0.0324628
-0.00958396
0.0324639
0.419315
0.960365
1.03575
1.03407
0.944814
0.419767
0.0394223
-0.00668859
0.0394235
0.419769
0.944812
1.03407
1.03095
0.926557
0.414354
0.0451338
-0.00310054
0.0451351
0.414356
0.926556
1.03095
1.026
0.906056
0.405741
0.0499629
0.000742056
0.0499642
0.405743
0.906055
1.026
1.01835
0.882321
0.394312
0.0539378
0.00463943
0.053939
0.394314
0.88232
1.01834
1.00661
0.853586
0.379128
0.0567973
0.00846437
0.0567984
0.37913
0.853585
1.00661
0.989185
0.817041
0.358096
0.0579796
0.0120824
0.0579806
0.358097
0.81704
0.989184
0.964663
0.768296
0.327166
0.056438
0.0153146
0.0564388
0.327167
0.768295
0.964662
0.930492
0.697001
0.278356
0.0503816
0.0178922
0.0503822
0.278357
0.697001
0.930491
0.887861
0.595734
0.194063
0.036259
0.0190397
0.0362593
0.194064
0.595735
0.88786
0.810303
0.374813
0.0243182
0.0206142
0.0158279
0.0206143
0.0243184
0.374813
0.810303
0.765137
0.302366
0.302366
0.765138
0.762294
0.458409
0.341973
0.243662
0.196544
0.243663
0.341974
0.458409
0.762295
0.651937
0.590521
0.450457
0.27627
0.20078
0.276271
0.450457
0.590521
0.651938
0.45905
0.286677
0.202909
0.286681
0.459048
0.446284
0.284471
0.201799
0.28448
0.446285
0.430484
0.278011
0.198987
0.278022
0.430485
0.414602
0.270195
0.195353
0.270206
0.414603
0.399062
0.261993
0.191326
0.262004
0.399064
0.383843
0.253701
0.187075
0.253711
0.383845
0.368922
0.24542
0.182673
0.245429
0.368924
0.354279
0.237178
0.178145
0.237187
0.354281
0.340004
0.229051
0.173554
0.22906
0.340007
0.325672
0.22077
0.168717
0.220778
0.325674
0.313483
0.213738
0.164598
0.213746
0.313485
0.292683
0.201265
0.15676
0.201273
0.292686
-5.44174e-15
-4.97326e-15
-4.26055e-15
-3.55435e-15
-3.52901e-15
-3.55361e-15
-4.26064e-15
-4.97347e-15
-5.4417e-15
-3.32643e-14
-2.58674e-14
-1.95419e-14
-1.51087e-14
-1.49955e-14
-1.51075e-14
-1.95407e-14
-2.58678e-14
-3.3264e-14
4.78424e-14
2.9619e-15
-3.44121e-14
-3.89975e-14
-3.59266e-14
-3.89963e-14
-3.44091e-14
2.96477e-15
4.7844e-14
-1.10656e-12
-5.1463e-13
-1.82103e-13
-9.46148e-14
-1.06758e-13
-9.4615e-14
-1.82113e-13
-5.14648e-13
-1.10656e-12
-4.26192e-11
-2.25804e-11
-8.18572e-12
-3.43368e-12
-4.30105e-12
-3.43376e-12
-8.18595e-12
-2.25806e-11
-4.26192e-11
6.94569e-10
2.71385e-10
4.13679e-11
-1.06635e-12
6.66257e-12
-1.06627e-12
4.13715e-11
2.71391e-10
6.94572e-10
-8.3184e-09
-2.62225e-09
-1.19493e-10
1.2893e-10
9.85469e-11
1.28934e-10
-1.19524e-10
-2.62233e-09
-8.31845e-09
6.966e-08
1.56598e-08
-2.88906e-09
-2.41639e-09
-2.70337e-09
-2.41647e-09
-2.88891e-09
1.56605e-08
6.96605e-08
-5.08821e-07
-8.15688e-08
3.56048e-08
1.86831e-08
2.43001e-08
1.86837e-08
3.56044e-08
-8.15741e-08
-5.08825e-07
3.20746e-06
3.09401e-07
-3.10351e-07
-1.22262e-07
-1.8022e-07
-1.22266e-07
-3.10353e-07
3.09433e-07
3.20748e-06
-1.89484e-05
-1.06917e-06
1.97727e-06
5.88047e-07
1.03643e-06
5.88067e-07
1.97729e-06
-1.06935e-06
-1.89485e-05
0.000104396
1.81681e-06
-1.15399e-05
-2.60707e-06
-5.60121e-06
-2.60715e-06
-1.15401e-05
1.81759e-06
0.000104396
-0.000558137
8.78878e-06
6.07259e-05
9.14473e-06
2.72402e-05
9.14502e-06
6.07268e-05
8.78565e-06
-0.000558139
0.00287852
-0.000191905
-0.000314802
-2.67065e-05
-0.000128164
-2.67073e-05
-0.000314807
-0.000191894
0.00287852
-0.0143157
0.0021533
0.00150381
2.10894e-06
0.000504719
2.10981e-06
0.00150383
0.00215327
-0.0143157
0.0557029
-0.0230359
-0.00593179
0.000641659
-0.00106451
0.000641666
-0.00593187
-0.0230358
0.0557028
0.685164
0.223586
0.00439562
-0.00470064
-0.00824836
-0.00470068
0.00439572
0.223586
0.685164
0.954015
0.506024
0.0632471
-0.00942996
-0.00131491
-0.00943004
0.0632476
0.506025
0.954014
1.03004
0.644251
0.117718
-0.00802478
0.0118527
-0.00802486
0.117719
0.644252
1.03004
1.04369
0.696484
0.152991
-0.0024159
0.0235312
-0.00241596
0.152992
0.696484
1.04368
1.03733
0.710331
0.174125
0.00497914
0.0324633
0.00497912
0.174127
0.710331
1.03733
1.02434
0.708553
0.187423
0.012888
0.0394228
0.012888
0.187425
0.708553
1.02434
1.00877
0.700279
0.196412
0.0207735
0.0451341
0.0207735
0.196414
0.70028
1.00877
0.991412
0.688304
0.202794
0.0283326
0.0499631
0.0283326
0.202796
0.688304
0.991411
0.971739
0.672938
0.206885
0.0353391
0.0539378
0.0353391
0.206887
0.672939
0.971738
0.948699
0.653312
0.208258
0.0414892
0.0567971
0.0414893
0.20826
0.653312
0.948698
0.921102
0.627608
0.205871
0.0462961
0.0579792
0.0462962
0.205873
0.627609
0.921101
0.887928
0.592808
0.197599
0.0488724
0.0564373
0.0488725
0.1976
0.592808
0.887928
0.847019
0.541115
0.17879
0.0476209
0.0503808
0.0476209
0.178791
0.541115
0.847018
0.798465
0.467799
0.13749
0.0375286
0.036258
0.0375286
0.137491
0.4678
0.798465
0.721172
0.301203
0.0234711
0.0233902
0.0206137
0.0233902
0.0234712
0.301204
0.721172
0.668903
0.246561
0.246561
0.668903
0.626323
0.367447
0.2387
0.18846
0.243662
0.18846
0.2387
0.367448
0.626324
0.442194
0.384814
0.273513
0.207636
0.276271
0.207636
0.273513
0.384813
0.442194
0.264465
0.214699
0.286681
0.2147
0.264463
0.252849
0.213708
0.284481
0.213713
0.252848
0.243398
0.209948
0.278022
0.209953
0.243398
0.235264
0.205267
0.270206
0.205271
0.235263
0.2277
0.200251
0.262004
0.200255
0.2277
0.220367
0.195079
0.253711
0.195083
0.220367
0.213144
0.189817
0.24543
0.189821
0.213144
0.205989
0.184486
0.237188
0.184489
0.205989
0.198942
0.179144
0.22906
0.179147
0.198942
0.191772
0.173599
0.220779
0.173602
0.191772
0.185666
0.168873
0.213747
0.168876
0.185666
0.17492
0.160202
0.201274
0.160205
0.17492
-4.26311e-15
-4.00828e-15
-3.9698e-15
-4.26097e-15
-5.3143e-15
-4.26064e-15
-3.96999e-15
-4.0085e-15
-4.26307e-15
-2.52136e-14
-2.00253e-14
-1.82775e-14
-1.95414e-14
-2.43962e-14
-1.95408e-14
-1.82772e-14
-2.00256e-14
-2.52135e-14
-4.51573e-14
-4.18379e-14
-4.39769e-14
-3.44084e-14
-1.55308e-14
-3.44088e-14
-4.39763e-14
-4.18367e-14
-4.51563e-14
6.77561e-14
9.78797e-15
-4.76696e-14
-1.82122e-13
-4.5099e-13
-1.82115e-13
-4.76703e-14
9.7855e-15
6.77555e-14
-1.44724e-11
-7.19501e-12
-4.19671e-12
-8.18619e-12
-1.67677e-11
-8.18601e-12
-4.19669e-12
-7.19509e-12
-1.44725e-11
8.8739e-11
2.09282e-11
1.21096e-13
4.1375e-11
1.5247e-10
4.13722e-11
1.20896e-13
2.09298e-11
8.87413e-11
-4.70422e-10
1.06789e-10
1.71024e-10
-1.19553e-10
-1.13118e-09
-1.19528e-10
1.71025e-10
1.06774e-10
-4.7045e-10
-2.69598e-09
-4.71563e-09
-3.32055e-09
-2.88877e-09
2.68535e-09
-2.88889e-09
-3.32056e-09
-4.71554e-09
-2.69572e-09
4.5902e-08
4.69826e-08
2.71689e-08
3.56041e-08
1.39203e-08
3.56044e-08
2.7169e-08
4.69822e-08
4.59002e-08
-4.61815e-07
-3.69823e-07
-1.83233e-07
-3.10354e-07
-2.95045e-07
-3.10353e-07
-1.83233e-07
-3.69823e-07
-4.61803e-07
3.17947e-06
2.24403e-06
9.3022e-07
1.97731e-06
2.45698e-06
1.97729e-06
9.30218e-07
2.24403e-06
3.17941e-06
-2.03344e-05
-1.27087e-05
-4.31838e-06
-1.15402e-05
-1.71124e-05
-1.15401e-05
-4.31836e-06
-1.27088e-05
-2.03342e-05
0.000120048
6.60425e-05
1.69183e-05
6.07276e-05
0.000104597
6.07267e-05
1.69182e-05
6.60428e-05
0.000120047
-0.000727947
-0.000341889
-6.15416e-05
-0.000314811
-0.000635463
-0.000314806
-6.15413e-05
-0.000341891
-0.000727944
0.00446878
0.00165242
0.000156808
0.00150385
0.00382196
0.00150383
0.000156807
0.00165243
0.00446877
-0.0282921
-0.00680466
-5.15144e-05
-0.00593193
-0.0228945
-0.00593184
-5.15122e-05
-0.0068047
-0.0282921
0.120265
0.00933124
-0.00223953
0.0043958
0.0791387
0.00439567
-0.00223952
0.00933133
0.120265
0.342269
0.0761238
0.00078135
0.063248
0.258648
0.0632473
0.000781332
0.0761242
0.342269
0.467116
0.136045
0.00972777
0.117719
0.362004
0.117718
0.00972771
0.136046
0.467116
0.520588
0.174419
0.0213613
0.152993
0.405672
0.152991
0.0213612
0.17442
0.520588
0.538692
0.197365
0.0337446
0.174127
0.419314
0.174125
0.0337445
0.197366
0.538692
0.541396
0.211958
0.0460859
0.187425
0.419768
0.187423
0.0460857
0.211959
0.541396
0.537547
0.222234
0.0580974
0.196414
0.414354
0.196412
0.0580971
0.222236
0.537547
0.530525
0.230014
0.0695784
0.202795
0.405742
0.202793
0.0695781
0.230015
0.530525
0.521471
0.235882
0.0803293
0.206885
0.394312
0.206883
0.080329
0.235883
0.521472
0.510684
0.239909
0.0901584
0.208258
0.379127
0.208256
0.0901581
0.23991
0.510685
0.498243
0.241911
0.0988795
0.20587
0.358095
0.205868
0.0988792
0.241912
0.498243
0.48416
0.24163
0.106347
0.197597
0.327165
0.197596
0.106346
0.241631
0.48416
0.467412
0.236467
0.111082
0.178788
0.278354
0.178787
0.111082
0.236468
0.467412
0.446323
0.229318
0.113681
0.137487
0.194061
0.137487
0.113681
0.229318
0.446323
0.410125
0.172902
0.0354304
0.0234699
0.0243167
0.0234698
0.0354304
0.172903
0.410126
0.369136
0.155405
0.155406
0.369136
0.297277
0.178453
0.132972
0.238697
0.341973
0.238697
0.132972
0.178453
0.297277
0.144862
0.107145
0.100138
0.27351
0.450458
0.273509
0.100137
0.107145
0.144861
0.0873051
0.26446
0.459049
0.26446
0.0873039
0.0827194
0.252844
0.446286
0.252845
0.0827181
0.0808559
0.243395
0.430486
0.243395
0.0808546
0.0798654
0.23526
0.414604
0.23526
0.079864
0.07906
0.227697
0.399065
0.227697
0.0790587
0.0782308
0.220364
0.383846
0.220364
0.0782294
0.0773135
0.213142
0.368924
0.213141
0.0773122
0.0762909
0.205987
0.354282
0.205986
0.0762896
0.0751793
0.198941
0.340007
0.19894
0.0751781
0.0739067
0.19177
0.325675
0.19177
0.0739056
0.0728279
0.185665
0.313486
0.185664
0.0728268
0.070405
0.174919
0.292686
0.174919
0.0704039
-3.3839e-15
-3.41268e-15
-4.00834e-15
-4.97335e-15
-6.92273e-15
-4.97348e-15
-4.0085e-15
-3.41282e-15
-3.38386e-15
-1.3128e-14
-1.36128e-14
-2.00257e-14
-2.58674e-14
-3.36198e-14
-2.58678e-14
-2.00257e-14
-1.36129e-14
-1.31279e-14
-3.99634e-14
-4.04579e-14
-4.1836e-14
2.96809e-15
8.40025e-14
2.96539e-15
-4.18366e-14
-4.04572e-14
-3.99629e-14
5.39541e-14
3.36993e-14
9.78067e-15
-5.1468e-13
-1.56249e-12
-5.14652e-13
9.78536e-15
3.37008e-14
5.39554e-14
-3.02653e-12
-2.57975e-12
-7.19535e-12
-2.25811e-11
-4.435e-11
-2.25807e-11
-7.19512e-12
-2.5797e-12
-3.02655e-12
-1.90029e-11
-1.43263e-11
2.09334e-11
2.71404e-10
7.25745e-10
2.71393e-10
2.09301e-11
-1.43263e-11
-1.90026e-11
3.8406e-10
2.79589e-10
1.06742e-10
-2.62247e-09
-8.30239e-09
-2.62235e-09
1.06772e-10
2.79588e-10
3.84059e-10
-5.40985e-09
-3.72909e-09
-4.71537e-09
1.56617e-08
6.65973e-08
1.56606e-08
-4.71553e-09
-3.72906e-09
-5.40986e-09
4.34005e-08
2.72745e-08
4.69816e-08
-8.15824e-08
-4.64144e-07
-8.15746e-08
4.69822e-08
2.72742e-08
4.34007e-08
-3.03335e-07
-1.70328e-07
-3.69822e-07
3.09481e-07
2.80813e-06
3.09434e-07
-3.69823e-07
-1.70326e-07
-3.03337e-07
1.72559e-06
8.15389e-07
2.24405e-06
-1.06961e-06
-1.60893e-05
-1.06935e-06
2.24403e-06
8.15377e-07
1.72561e-06
-9.41324e-06
-3.64866e-06
-1.27089e-05
1.81869e-06
8.70789e-05
1.81752e-06
-1.27088e-05
-3.6486e-06
-9.41333e-06
4.69043e-05
1.35593e-05
6.60435e-05
8.78128e-06
-0.00046262
8.7862e-06
6.60428e-05
1.3559e-05
4.69047e-05
-0.000227171
-4.48705e-05
-0.000341895
-0.000191879
0.00237629
-0.000191897
-0.000341891
-4.48698e-05
-0.000227173
0.000946688
6.62918e-05
0.00165245
0.00215323
-0.011635
0.00215328
0.00165243
6.62902e-05
0.000946693
-0.00251389
0.000472466
-0.00680477
-0.0230358
0.0419308
-0.0230359
-0.00680468
0.000472465
-0.0025139
-0.00978646
-0.0046609
0.00933148
0.223587
0.593387
0.223586
0.00933126
-0.00466087
-0.00978647
0.00851221
-0.00768732
0.0761248
0.506026
0.875969
0.506024
0.0761239
-0.00768729
0.00851225
0.0340354
-0.00391832
0.136047
0.644253
0.955999
0.644251
0.136045
-0.00391832
0.0340356
0.0541787
0.00401547
0.174421
0.696486
0.968897
0.696483
0.174419
0.00401541
0.0541789
0.068008
0.0135174
0.197367
0.710333
0.960366
0.71033
0.197365
0.0135172
0.0680083
0.0777043
0.0233475
0.211961
0.708555
0.944813
0.708552
0.211958
0.0233473
0.0777046
0.0850928
0.0330356
0.222236
0.700281
0.926557
0.700278
0.222233
0.0330354
0.0850931
0.091196
0.0424054
0.230016
0.688305
0.906056
0.688301
0.230013
0.0424051
0.0911963
0.0965153
0.0513706
0.235883
0.672939
0.88232
0.672936
0.23588
0.0513703
0.0965157
0.101315
0.0598969
0.239909
0.653311
0.853585
0.653308
0.239906
0.0598965
0.101315
0.10579
0.0680337
0.24191
0.627607
0.81704
0.627604
0.241908
0.0680334
0.105791
0.11012
0.0761046
0.241629
0.592806
0.768295
0.592803
0.241627
0.0761043
0.11012
0.114224
0.0842361
0.236465
0.541112
0.697001
0.54111
0.236463
0.0842358
0.114224
0.11732
0.0946412
0.229315
0.467795
0.595734
0.467794
0.229314
0.094641
0.11732
0.11604
0.0997608
0.1729
0.3012
0.374812
0.3012
0.172899
0.0997607
0.11604
0.103696
0.0997367
0.155403
0.246558
0.302365
0.246557
0.155403
0.0997366
0.103696
0.0712313
0.0761404
0.17845
0.367444
0.458409
0.367444
0.178449
0.0761403
0.0712313
0.0232172
0.019744
0.107142
0.384809
0.590524
0.384809
0.107142
0.0197439
0.0232171
-3.20105e-15
-3.38386e-15
-4.26309e-15
-5.44168e-15
-8.13955e-15
-5.44171e-15
-4.26308e-15
-3.38386e-15
-3.20101e-15
-9.42921e-15
-1.31282e-14
-2.5214e-14
-3.32643e-14
-4.39508e-14
-3.32641e-14
-2.52135e-14
-1.31279e-14
-9.42909e-15
-2.48891e-14
-3.99637e-14
-4.5156e-14
4.78471e-14
2.03263e-13
4.78449e-14
-4.51562e-14
-3.99628e-14
-2.48888e-14
-8.13574e-16
5.39565e-14
6.7741e-14
-1.10662e-12
-3.25075e-12
-1.10657e-12
6.77553e-14
5.39557e-14
-8.13985e-16
-7.87421e-13
-3.02669e-12
-1.44729e-11
-4.26199e-11
-7.42001e-11
-4.26194e-11