/*--------------------------------*- C++ -*----------------------------------*\
  =========                 |
  \\      /  F ield         | OpenFOAM: The Open Source CFD Toolbox
   \\    /   O peration     | Website:  https://openfoam.org
    \\  /    A nd           | Version:  6
     \\/     M anipulation  |
\*---------------------------------------------------------------------------*/
FoamFile
{
    version     2.0;
    format      ascii;
    class       volScalarField;
    location    "0.4";
    object      T;
}
// * * * * * * * * * * * * * * * * * * * * * * * * * * * * * * * * * * * * * //

dimensions      [0 0 0 1 0 0 0];

internalField   nonuniform List<scalar> 
3029
(
293.156
293.15
293.259
292.519
302.575
292.519
293.259
293.15
293.157
293.159
293.158
293.26
292.582
303.616
292.582
293.26
293.157
293.159
293.174
293.171
293.358
292.878
307.485
292.878
293.357
293.17
293.174
293.249
293.282
293.525
293.98
314.949
293.979
293.524
293.281
293.249
293.494
293.653
293.919
297.186
327.255
297.184
293.918
293.651
293.494
294.317
294.837
295.621
304.816
345.739
304.814
295.619
294.835
294.316
297.13
298.559
301.287
319.772
371.402
319.77
301.284
298.556
297.129
304.725
307.891
314.554
344.412
404.487
344.408
314.55
307.888
304.724
320.516
326.202
338.451
379.508
444.279
379.504
338.447
326.197
320.514
347.029
355.603
374
423.903
489.153
423.898
373.995
355.597
347.026
384.73
395.989
419.846
474.952
536.933
474.945
419.839
395.981
384.727
431.809
445.102
472.916
529.256
585.038
529.249
472.908
445.093
431.805
484.791
499.287
529.329
584.131
632.642
584.123
529.319
499.276
484.785
539.472
554.695
586.136
635.391
672.467
635.382
586.126
554.683
539.465
591.844
606.878
637.485
692.587
739.926
692.578
637.473
606.864
591.835
638.122
655.365
702.144
722.162
611.649
722.156
702.132
655.35
638.112
678.493
699.885
693.058
514.656
399.837
514.655
693.049
699.869
678.482
713.094
726.692
636.207
419.087
390.712
419.087
636.201
726.677
713.081
740.796
741.496
601.286
390.108
387.235
390.109
601.281
741.482
740.782
762.416
751.841
587.795
384.148
386.054
384.149
587.791
751.827
762.402
779.47
760.599
585.976
386.209
385.814
386.209
585.973
760.586
779.455
793.144
768.299
589.318
391.231
386.237
391.232
589.315
768.286
793.129
804.204
774.917
594.717
397.596
387.343
397.597
594.715
774.904
804.19
813.142
780.427
600.961
404.969
389.32
404.969
600.959
780.415
813.128
820.313
784.887
607.668
413.563
392.579
413.563
607.665
784.875
820.299
826.007
788.387
614.774
423.827
397.747
423.827
614.771
788.377
825.994
830.481
791.016
622.294
436.274
405.556
436.273
622.291
791.007
830.468
833.948
792.842
630.258
451.338
416.644
451.338
630.255
792.834
833.936
836.562
794.028
639.156
469.978
432.167
469.978
639.153
794.021
836.55
838.397
795.033
649.746
492.104
451.552
492.104
649.744
795.027
838.386
839.656
797.453
667.016
527.382
486.916
527.381
667.014
797.448
839.645
841.791
804.4
686.151
551.297
507.595
551.296
686.149
804.396
841.781
845.808
820.338
719.09
570.685
508.97
570.684
719.089
820.334
845.797
851.896
844.151
789.329
654.765
559.476
654.765
789.328
844.146
851.886
293.15
293.167
293.533
293.06
311.385
293.06
293.532
293.167
293.15
293.158
293.186
293.557
293.383
313.657
293.383
293.556
293.186
293.157
293.171
293.301
293.682
294.654
320.107
294.653
293.681
293.3
293.17
293.282
293.628
294.04
298.088
331.825
298.086
294.038
293.627
293.281
293.653
294.417
295.448
305.783
349.878
305.781
295.446
294.415
293.651
294.837
296.603
300.007
320.298
374.954
320.295
300.004
296.6
294.834
298.559
302.479
310.902
343.737
407.054
343.733
310.899
302.475
298.556
307.891
315.326
331.172
376.868
445.374
376.863
331.167
315.32
307.887
326.202
338.048
362.361
418.79
488.388
418.784
362.355
338.041
326.197
355.603
371.843
403.9
467.213
534.087
467.206
403.892
371.834
355.596
395.989
415.708
453.367
519.106
580.323
519.098
453.357
415.698
395.98
445.102
466.847
507.332
571.372
624.983
571.363
507.321
466.835
445.092
499.286
521.542
562.132
621.365
666.766
621.355
562.119
521.529
499.274
554.695
576.054
614.882
667.312
702.789
667.303
614.868
576.038
554.681
606.877
626.961
661.857
706.484
740.175
706.474
661.843
626.944
606.861
655.364
671.491
706.787
753.64
751.536
753.631
706.773
671.472
655.347
699.884
710.783
736.156
687.729
555.04
687.724
736.142
710.764
699.866
726.69
741.73
736.335
591.89
449.212
591.887
736.323
741.711
726.672
741.495
763.054
729.908
543.085
418.215
543.083
729.898
763.035
741.477
751.839
777.514
726.489
525.248
413.296
525.247
726.48
777.496
751.822
760.598
787.721
726.277
522.003
417.211
522.002
726.268
787.703
760.581
768.299
795.157
727.608
524.822
424.21
524.822
727.6
795.14
768.282
774.916
800.595
729.374
530.147
432.5
530.146
729.366
800.579
774.9
780.427
804.482
731.108
536.891
441.883
536.89
731.101
804.467
780.412
784.887
807.128
732.768
544.982
452.792
544.981
732.761
807.114
784.872
788.387
808.772
734.482
554.851
466.015
554.85
734.476
808.76
788.374
791.017
809.586
736.472
567.348
482.816
567.347
736.466
809.574
791.005
792.843
809.587
738.968
583.865
505.182
583.864
738.962
809.577
792.833
794.029
808.865
743.257
607.976
537.83
607.975
743.252
808.857
794.02
795.035
806.503
748.055
641.835
584.132
641.834
748.051
806.496
795.027
797.454
806.118
775.53
718.579
685.386
718.578
775.527
806.113
797.448
804.401
807.185
784.118
743.848
718.692
743.847
784.116
807.181
804.396
820.339
818.484
773.433
688.764
647.634
688.764
773.431
818.482
820.334
844.152
845.665
806.386
680.886
587.486
680.886
806.384
845.662
844.148
293.259
293.533
292.686
300.538
349.157
300.536
292.685
293.532
293.259
293.26
293.557
292.784
302.747
354.869
302.745
292.782
293.556
293.26
293.357
293.681
293.329
309.007
368.096
309.005
293.328
293.68
293.357
293.525
294.039
295.554
321.241
389.105
321.238
295.552
294.038
293.524
293.919
295.447
301.818
341.286
417.378
341.283
301.815
295.445
293.917
295.62
300.006
315.083
370.098
451.785
370.093
315.079
300.003
295.618
301.286
310.901
337.77
407.274
490.74
407.268
337.765
310.897
301.283
314.553
331.171
370.739
451.136
532.416
451.13
370.733
331.165
314.549
338.45
362.36
412.987
499.2
574.949
499.193
412.979
362.353
338.445
373.999
403.899
462.033
548.73
616.616
548.722
462.023
403.89
373.992
419.845
453.365
514.643
597.191
655.957
597.182
514.631
453.354
419.836
472.915
507.33
567.54
642.533
691.86
642.524
567.527
507.317
472.904
529.327
562.13
617.88
683.226
723.439
683.216
617.867
562.115
529.315
586.134
614.879
663.555
718.538
750.613
718.528
663.541
614.863
586.12
637.483
661.855
702.874
746.7
770.062
746.69
702.859
661.838
637.467
702.141
706.784
735.105
772.11
796.722
772.101
735.09
706.767
702.124
693.055
736.152
760.949
785.424
767.841
785.415
760.934
736.135
693.041
636.205
736.332
778.869
774.99
703.534
774.983
778.855
736.316
636.194
601.284
729.905
789.928
762.413
666.675
762.407
789.913
729.89
601.275
587.793
726.487
796.695
755.125
652.69
755.12
796.681
726.473
587.785
585.975
726.276
800.868
752.107
650.427
752.102
800.855
726.262
585.968
589.318
727.608
803.308
751.25
653.204
751.246
803.295
727.594
589.31
594.717
729.374
804.468
751.343
658.068
751.338
804.456
729.361
594.71
600.962
731.109
804.677
751.839
663.967
751.835
804.667
731.097
600.955
607.669
732.769
804.226
752.746
670.815
752.742
804.216
732.758
607.662
614.776
734.484
803.373
754.375
679.096
754.372
803.364
734.474
614.769
622.296
736.475
802.358
757.304
689.814
757.301
802.35
736.466
622.29
630.261
738.971
801.39
762.594
704.867
762.591
801.383
738.963
630.255
639.16
743.261
801.289
772.464
727.957
772.461
801.283
743.254
639.155
649.751
748.059
801.956
792.507
767.223
792.505
801.951
748.054
649.746
667.021
775.533
840.193
846.142
845.901
846.142
840.192
775.53
667.017
686.157
784.121
784.12
686.154
719.095
773.436
794.323
747.249
700.801
747.249
794.322
773.435
719.093
789.332
806.389
809.499
731.407
651.348
731.406
809.498
806.388
789.332
815.532
735.574
647.44
735.573
815.531
817.813
740.96
653.293
740.959
817.811
818.853
745.378
660.545
745.377
818.851
819.485
749.196
667.837
749.195
819.483
820.021
752.75
674.974
752.749
820.019
820.555
756.192
681.963
756.191
820.554
821.118
759.578
688.816
759.577
821.117
821.717
762.926
695.54
762.926
821.716
822.347
766.22
702.095
766.219
822.346
823.042
769.565
708.676
769.565
823.041
823.634
772.416
714.273
772.416
823.633
824.882
777.416
723.825
777.416
824.881
292.519
293.06
300.537
364.181
474.841
364.177
300.535
293.059
292.519
292.582
293.383
302.746
371.267
483.607
371.262
302.744
293.382
292.582
292.878
294.653
309.007
387.237
501.307
387.232
309.004
294.651
292.877
293.979
298.087
321.24
412.075
526.218
412.069
321.236
298.084
293.978
297.185
305.782
341.285
444.685
555.984
444.678
341.28
305.779
297.182
304.815
320.297
370.096
483.177
588.373
483.169
370.09
320.292
304.812
319.771
343.735
407.272
525.229
621.537
525.221
407.264
343.73
319.767
344.41
376.865
451.134
568.509
654.06
568.5
451.125
376.858
344.405
379.506
418.787
499.198
610.977
684.907
610.968
499.187
418.778
379.5
423.901
467.209
548.727
651.037
713.353
651.028
548.715
467.199
423.893
474.948
519.101
597.188
687.567
738.926
687.558
597.175
519.09
474.939
529.252
571.367
642.53
719.864
761.355
719.855
642.517
571.354
529.242
584.127
621.359
683.222
747.558
780.499
747.549
683.209
621.345
584.115
635.386
667.307
718.534
770.552
796.434
770.543
718.52
667.292
635.373
692.581
706.478
746.696
788.833
808.76
788.824
746.682
706.462
692.567
722.157
753.633
772.107
802.202
818.533
802.194
772.092
753.617
722.144
514.655
687.725
785.42
813.946
827.577
813.937
785.406
687.713
514.65
419.087
591.887
774.987
823.336
829.587
823.327
774.974
591.879
419.086
390.109
543.083
762.41
829.172
828.492
829.163
762.398
543.077
390.109
384.149
525.247
755.123
832.368
827.465
832.36
755.111
525.241
384.149
386.209
522.003
752.105
833.952
827.028
833.944
752.094
521.997
386.209
391.232
524.823
751.25
834.517
826.889
834.51
751.239
524.817
391.231
397.597
530.148
751.342
834.386
826.802
834.38
751.332
530.142
397.596
404.97
536.892
751.839
833.789
826.677
833.782
751.83
536.887
404.968
413.564
544.984
752.747
832.925
826.573
832.92
752.738
544.979
413.563
423.829
554.854
754.378
832.026
826.674
832.021
754.369
554.849
423.827
436.276
567.352
757.307
831.399
827.296
831.394
757.3
567.347
436.274
451.341
583.87
762.598
831.528
828.972
831.523
762.591
583.865
451.34
469.982
607.982
772.468
833.226
832.581
833.223
772.462
607.978
469.98
492.108
641.842
792.511
838.895
839.831
838.893
792.507
641.839
492.107
527.387
718.585
846.144
846.52
847.882
846.52
846.144
718.583
527.385
551.303
743.854
743.853
551.302
570.692
688.771
747.254
770.342
745.68
770.342
747.255
688.77
570.69
654.771
680.893
731.412
761.603
730.811
761.603
731.412
680.893
654.772
735.579
758.456
726.097
758.456
735.58
740.965
759.008
727.154
759.007
740.965
745.383
760.827
730.158
760.825
745.382
749.201
763.062
733.782
763.06
749.201
752.755
765.444
737.58
765.442
752.754
756.197
767.89
741.416
767.888
756.196
759.582
770.371
745.245
770.369
759.581
762.931
772.879
749.053
772.877
762.93
766.224
775.386
752.806
775.384
766.223
769.57
777.981
756.628
777.979
769.569
772.42
780.194
759.874
780.192
772.42
777.42
784.235
765.625
784.234
777.42
302.574
311.383
349.154
474.837
614.664
474.831
349.151
311.382
302.574
303.615
313.655
354.866
483.603
621.383
483.597
354.863
313.653
303.615
307.483
320.105
368.093
501.303
634.059
501.297
368.089
320.103
307.482
314.947
331.822
389.101
526.213
650.942
526.206
389.096
331.819
314.945
327.252
349.875
417.374
555.979
670.213
555.972
417.368
349.871
327.25
345.736
374.949
451.779
588.367
690.468
588.361
451.773
374.945
345.733
371.398
407.049
490.734
621.532
710.747
621.525
490.727
407.043
371.394
404.483
445.368
532.409
654.055
730.408
654.048
532.402
445.361
404.478
444.274
488.381
574.942
684.902
749.007
684.894
574.933
488.374
444.268
489.147
534.079
616.608
713.348
766.222
713.341
616.599
534.071
489.141
536.926
580.315
655.95
738.921
781.82
738.913
655.94
580.305
536.919
585.031
624.974
691.852
761.351
795.647
761.343
691.842
624.963
585.022
632.635
666.757
723.432
780.495
807.618
780.487
723.421
666.745
632.625
672.459
702.78
750.606
796.43
817.705
796.422
750.595
702.768
672.448
739.918
740.167
770.055
808.757
825.971
808.749
770.043
740.154
739.906
611.646
751.528
796.715
818.53
832.06
818.522
796.703
751.516
611.639
399.837
555.037
767.835
827.574
837.563
827.566
767.824
555.032
399.837
390.712
449.211
703.53
829.584
843.165
829.576
703.521
449.21
390.712
387.235
418.215
666.672
828.489
847.452
828.481
666.664
418.214
387.236
386.055
413.296
652.687
827.463
850.099
827.455
652.679
413.295
386.055
385.815
417.211
650.426
827.027
851.483
827.019
650.418
417.21
385.815
386.238
424.21
653.203
826.888
852.023
826.881
653.196
424.208
386.237
387.344
432.501
658.068
826.802
851.988
826.795
658.06
432.499
387.343
389.321
441.884
663.968
826.677
851.594
826.671
663.96
441.881
389.32
392.58
452.794
670.816
826.574
850.963
826.568
670.809
452.791
392.58
397.749
466.018
679.098
826.675
850.18
826.67
679.091
466.015
397.748
405.558
482.819
689.818
827.297
849.338
827.293
689.811
482.816
405.557
416.646
505.186
704.871
828.974
848.551
828.97
704.866
505.183
416.646
432.17
537.835
727.962
832.584
847.977
832.581
727.957
537.832
432.169
451.556
584.139
767.229
839.834
848.026
839.832
767.225
584.136
451.555
486.92
685.392
845.905
847.884
850.169
847.884
845.905
685.391
486.919
507.6
718.698
718.698
507.6
508.976
647.64
700.808
745.687
767.405
745.689
700.809
647.64
508.975
559.483
587.493
651.355
730.818
765.477
730.819
651.355
587.493
559.483
647.448
726.104
764.539
726.102
647.448
653.301
727.161
765.092
727.156
653.3
660.552
730.165
766.424
730.159
660.551
667.845
733.789
768.13
733.783
667.843
674.981
737.587
770.013
737.58
674.979
681.971
741.423
771.996
741.416
681.969
688.824
745.252
774.045
745.245
688.822
695.548
749.06
776.149
749.053
695.546
702.103
752.813
778.28
752.806
702.101
708.684
756.634
780.521
756.628
708.681
714.281
759.881
782.431
759.874
714.279
723.833
765.632
786.054
765.624
723.83
292.519
293.059
300.534
364.173
474.829
364.171
300.534
293.058
292.519
292.582
293.381
302.743
371.258
483.595
371.256
302.742
293.381
292.581
292.877
294.651
309.003
387.227
501.294
387.225
309.001
294.65
292.876
293.978
298.084
321.235
412.064
526.203
412.061
321.233
298.083
293.977
297.183
305.779
341.279
444.673
555.969
444.669
341.276
305.777
297.182
304.812
320.292
370.088
483.163
588.357
483.159
370.085
320.29
304.811
319.767
343.729
407.262
525.215
621.521
525.21
407.258
343.726
319.765
344.404
376.857
451.123
568.493
654.044
568.489
451.118
376.854
344.402
379.499
418.778
499.185
610.961
684.891
610.956
499.18
418.773
379.496
423.892
467.199
548.713
651.021
713.338
651.016
548.707
467.193
423.889
474.939
519.09
597.174
687.551
738.911
687.545
597.167
519.083
474.934
529.241
571.354
642.516
719.849
761.34
719.842
642.508
571.347
529.236
584.115
621.346
683.208
747.544
780.485
747.536
683.2
621.338
584.109
635.374
667.294
718.521
770.538
796.42
770.531
718.512
667.285
635.368
692.57
706.466
746.683
788.82
808.747
788.812
746.674
706.457
692.562
722.149
753.623
772.094
802.19
818.521
802.182
772.085
753.613
722.141
514.652
687.718
785.409
813.934
827.565
813.926
785.399
687.71
514.649
419.087
591.883
774.978
823.324
829.575
823.317
774.968
591.878
419.086
390.109
543.081
762.403
829.161
828.48
829.154
762.393
543.076
390.109
384.149
525.245
755.116
832.358
827.455
832.352
755.107
525.241
384.149
386.209
522.001
752.099
833.943
827.019
833.937
752.09
521.997
386.209
391.232
524.821
751.244
834.509
826.881
834.503
751.235
524.817
391.232
397.597
530.146
751.337
834.379
826.796
834.374
751.329
530.142
397.597
404.969
536.891
751.835
833.783
826.672
833.778
751.827
536.886
404.969
413.564
544.982
752.743
832.92
826.569
832.916
752.736
544.978
413.563
423.828
554.852
754.374
832.022
826.672
832.018
754.367
554.848
423.827
436.275
567.35
757.304
831.396
827.294
831.392
757.297
567.346
436.274
451.34
583.868
762.595
831.526
828.972
831.523
762.589
583.864
451.339
469.981
607.979
772.466
833.226
832.583
833.224
772.461
607.976
469.979
492.107
641.84
792.511
838.896
839.834
838.895
792.507
641.837
492.106
527.386
718.585
846.146
846.523
847.885
846.523
846.146
718.583
527.384
551.301
743.854
743.854
551.301
570.69
688.771
747.257
770.35
745.693
770.351
747.257
688.771
570.689
654.773
680.894
731.415
761.611
730.823
761.611
731.414
680.893
654.772
735.583
758.464
726.107
758.463
735.582
740.969
759.015
727.16
759.011
740.968
745.386
760.833
730.164
760.83
745.385
749.205
763.068
733.787
763.065
749.204
752.758
765.45
737.585
765.447
752.757
756.201
767.896
741.421
767.893
756.199
759.587
770.377
745.25
770.375
759.585
762.935
772.885
749.057
772.882
762.934
766.229
775.392
752.81
775.389
766.228
769.575
777.987
756.632
777.984
769.573
772.425
780.2
759.878
780.197
772.424
777.426
784.242
765.629
784.239
777.424
293.259
293.532
292.684
300.534
349.15
300.534
292.684
293.532
293.259
293.26
293.555
292.782
302.742
354.862
302.742
292.781
293.555
293.26
293.357
293.68
293.326
309.002
368.087
309.001
293.326
293.679
293.357
293.524
294.037
295.551
321.234
389.095
321.233
295.55
294.037
293.523
293.917
295.444
301.813
341.278
417.366
341.276
301.812
295.443
293.916
295.618
300.002
315.076
370.087
451.771
370.085
315.075
300.001
295.617
301.282
310.896
337.762
407.26
490.725
407.258
337.76
310.894
301.281
314.548
331.163
370.729
451.121
532.399
451.118
370.727
331.161
314.546
338.444
362.351
412.974
499.183
574.931
499.18
412.971
362.348
338.442
373.991
403.887
462.018
548.71
616.596
548.707
462.014
403.884
373.988
419.835
453.351
514.625
597.17
655.937
597.166
514.621
453.347
419.832
472.903
507.314
567.521
642.512
691.839
642.508
567.516
507.31
472.899
529.313
562.113
617.86
683.204
723.419
683.199
617.855
562.107
529.309
586.119
614.861
663.535
718.516
750.593
718.511
663.53
614.855
586.114
637.467
661.836
702.854
746.678
770.042
746.674
702.847
661.83
637.462
702.125
706.766
735.085
772.09
796.702
772.085
735.079
706.759
702.119
693.043
736.136
760.929
785.404
767.823
785.4
760.923
736.128
693.037
636.197
736.318
778.851
774.972
703.521
774.969
778.844
736.311
636.192
601.278
729.893
789.91
762.397
666.664
762.394
789.904
729.886
601.274
587.789
726.476
796.678
755.11
652.68
755.108
796.672
726.469
587.785
585.971
726.266
800.854
752.094
650.419
752.091
800.847
726.259
585.967
589.314
727.598
803.294
751.239
653.197
751.237
803.288
727.592
589.31
594.713
729.365
804.456
751.333
658.062
751.331
804.45
729.358
594.709
600.958
731.101
804.667
751.831
663.962
751.829
804.662
731.095
600.954
607.665
732.762
804.218
752.74
670.812
752.738
804.212
732.756
607.661
614.772
734.478
803.366
754.372
679.094
754.37
803.361
734.473
614.768
622.293
736.47
802.354
757.302
689.815
757.3
802.349
736.465
622.289
630.258
738.967
801.387
762.594
704.869
762.592
801.383
738.962
630.254
639.157
743.258
801.288
772.466
727.961
772.465
801.285
743.254
639.154
649.748
748.058
801.957
792.512
767.229
792.511
801.955
748.055
649.746
667.019
775.534
840.198
846.148
845.908
846.148
840.198
775.533
667.017
686.156
784.124
784.124
686.154
719.097
773.44
794.331
747.26
700.813
747.26
794.331
773.439
719.095
789.338
806.395
809.508
731.418
651.359
731.418
809.508
806.394
789.337
815.541
735.586
647.452
735.586
815.541
817.822
740.972
653.304
740.971
817.822
818.862
745.389
660.555
745.388
818.861
819.494
749.208
667.847
749.207
819.494
820.03
752.761
674.983
752.76
820.03
820.565
756.203
681.973
756.202
820.564
821.127
759.588
688.826
759.588
821.127
821.727
762.937
695.55
762.937
821.726
822.356
766.23
702.105
766.23
822.356
823.051
769.576
708.685
769.576
823.051
823.643
772.426
714.283
772.426
823.643
824.891
777.427
723.834
777.427
824.891
293.15
293.166
293.532
293.058
311.381
293.058
293.532
293.166
293.15
293.157
293.185
293.555
293.381
313.653
293.381
293.555
293.185
293.157
293.17
293.3
293.68
294.65
320.102
294.65
293.679
293.299
293.17
293.28
293.626
294.037
298.083
331.818
298.083
294.037
293.626
293.28
293.651
294.414
295.444
305.778
349.87
305.777
295.443
294.413
293.65
294.834
296.599
300.002
320.291
374.944
320.29
300.001
296.598
294.833
298.555
302.474
310.895
343.728
407.042
343.726
310.894
302.472
298.554
307.886
315.318
331.163
376.856
445.36
376.854
331.161
315.317
307.885
326.195
338.038
362.35
418.776
488.372
418.773
362.348
338.036
326.194
355.594
371.831
403.886
467.196
534.069
467.194
403.884
371.829
355.593
395.978
415.694
453.35
519.087
580.304
519.083
453.348
415.691
395.976
445.089
466.831
507.313
571.351
624.962
571.348
507.31
466.827
445.086
499.272
521.524
562.111
621.342
666.744
621.339
562.108
521.52
499.268
554.678
576.033
614.859
667.289
702.767
667.285
614.855
576.028
554.674
606.859
626.939
661.834
706.46
740.153
706.457
661.83
626.934
606.855
655.345
671.468
706.764
753.616
751.516
753.613
706.759
671.463
655.34
699.865
710.76
736.133
687.712
555.032
687.711
736.129
710.755
699.859
726.672
741.707
736.314
591.879
449.21
591.878
736.311
741.701
726.666
741.478
763.032
729.889
543.077
418.214
543.077
729.887
763.026
741.472
751.824
777.494
726.472
525.242
413.295
525.242
726.47
777.488
751.818
760.583
787.702
726.262
521.997
417.21
521.998
726.26
787.696
760.578
768.285
795.14
727.595
524.817
424.209
524.818
727.593
795.134
768.279
774.903
800.58
729.362
530.143
432.499
530.143
729.36
800.574
774.898
780.415
804.468
731.098
536.888
441.882
536.888
731.096
804.463
780.41
784.876
807.116
732.76
544.98
452.793
544.98
732.758
807.111
784.871
788.379
808.763
734.477
554.851
466.016
554.851
734.475
808.759
788.374
791.01
809.579
736.469
567.349
482.818
567.349
736.467
809.575
791.006
792.838
809.584
738.967
583.868
505.186
583.868
738.965
809.58
792.834
794.026
808.864
743.259
607.98
537.836
607.98
743.257
808.861
794.023
795.034
806.505
748.059
641.842
584.14
641.842
748.058
806.502
795.031
797.455
806.122
775.536
718.587
685.395
718.587
775.535
806.121
797.453
804.404
807.191
784.126
743.858
718.702
743.858
784.126
807.19
804.402
820.344
818.492
773.442
688.774
647.644
688.774
773.442
818.491
820.341
844.158
845.674
806.397
680.898
587.496
680.897
806.396
845.674
844.159
293.157
293.15
293.259
292.519
302.574
292.519
293.259
293.15
293.157
293.159
293.157
293.26
292.581
303.615
292.581
293.26
293.157
293.159
293.174
293.17
293.357
292.877
307.482
292.876
293.357
293.17
293.174
293.249
293.28
293.523
293.977
314.945
293.977
293.523
293.28
293.248
293.493
293.65
293.916
297.182
327.249
297.182
293.916
293.65
293.492
294.315
294.833
295.617
304.811
345.733
304.811
295.617
294.833
294.314
297.128
298.554
301.282
319.766
371.394
319.765
301.281
298.554
297.126
304.723
307.886
314.547
344.403
404.478
344.402
314.546
307.885
304.721
320.512
326.195
338.443
379.498
444.267
379.497
338.442
326.194
320.511
347.024
355.594
373.99
423.891
489.14
423.889
373.989
355.593
347.022
384.725
395.978
419.834
474.937
536.918
474.935
419.832
395.976
384.722
431.802
445.089
472.902
529.239
585.021
529.237
472.899
445.086
431.798
484.782
499.271
529.312
584.113
632.625
584.11
529.309
499.268
484.778
539.461
554.678
586.118
635.371
672.448
635.368
586.115
554.674
539.457
591.832
606.858
637.465
692.565
739.906
692.563
637.462
606.855
591.827
638.109
655.344
702.122
722.143
611.639
722.141
702.119
655.34
638.103
678.479
699.863
693.04
514.65
399.837
514.65
693.038
699.859
678.473
713.078
726.671
636.193
419.086
390.712
419.086
636.192
726.667
713.073
740.78
741.476
601.275
390.109
387.236
390.109
601.275
741.472
740.774
762.4
751.821
587.785
384.149
386.055
384.149
587.785
751.818
762.395
779.454
760.581
585.968
386.209
385.815
386.21
585.968
760.578
779.448
793.129
768.283
589.31
391.232
386.238
391.232
589.311
768.279
793.123
804.19
774.901
594.71
397.597
387.344
397.597
594.711
774.898
804.184
813.128
780.413
600.955
404.969
389.321
404.969
600.955
780.41
813.123
820.301
784.875
607.663
413.563
392.58
413.564
607.663
784.872
820.296
825.997
788.377
614.77
423.828
397.749
423.828
614.77
788.375
825.992
830.472
791.009
622.291
436.275
405.558
436.275
622.292
791.007
830.468
833.941
792.838
630.257
451.341
416.647
451.341
630.257
792.836
833.937
836.556
794.026
639.157
469.981
432.171
469.981
639.157
794.024
836.553
838.393
795.033
649.749
492.108
451.557
492.109
649.749
795.032
838.39
839.652
797.455
667.02
527.387
486.922
527.388
667.02
797.455
839.651
841.789
804.404
686.157
551.304
507.602
551.304
686.157
804.404
841.787
845.806
820.343
719.098
570.693
508.978
570.693
719.098
820.343
845.805
851.896
844.158
789.339
654.776
559.486
654.776
789.339
844.16
851.902
)
;

boundaryField
{
    injectionXMinus
    {
        type            uniformFixedValue;
        uniformValue    uniform 400;
        value           uniform 400;
    }
    injectionXPlus
    {
        type            uniformFixedValue;
        uniformValue    uniform 400;
        value           uniform 400;
    }
    injectionYMinus
    {
        type            uniformFixedValue;
        uniformValue    uniform 400;
        value           uniform 400;
    }
    injectionYPlus
    {
        type            uniformFixedValue;
        uniformValue    uniform 400;
        value           uniform 400;
    }
    inletXMinus
    {
        type            uniformFixedValue;
        uniformValue    uniform 293.15;
        value           uniform 293.15;
    }
    inletXPlus
    {
        type            uniformFixedValue;
        uniformValue    uniform 293.15;
        value           uniform 293.15;
    }
    inletYMinus
    {
        type            uniformFixedValue;
        uniformValue    uniform 293.15;
        value           uniform 293.15;
    }
    inletYPlus
    {
        type            uniformFixedValue;
        uniformValue    uniform 293.15;
        value           uniform 293.15;
    }
    outlet
    {
        type            zeroGradient;
    }
    valve
    {
        type            zeroGradient;
    }
    walls
    {
        type            zeroGradient;
    }
}


// ************************************************************************* //
