/*--------------------------------*- C++ -*----------------------------------*\
  =========                 |
  \\      /  F ield         | OpenFOAM: The Open Source CFD Toolbox
   \\    /   O peration     | Website:  https://openfoam.org
    \\  /    A nd           | Version:  6
     \\/     M anipulation  |
\*---------------------------------------------------------------------------*/
FoamFile
{
    version     2.0;
    format      ascii;
    class       volScalarField;
    location    "0.6";
    object      T;
}
// * * * * * * * * * * * * * * * * * * * * * * * * * * * * * * * * * * * * * //

dimensions      [0 0 0 1 0 0 0];

internalField   nonuniform List<scalar> 
3029
(
277.841
271.498
303.984
245.901
310.225
245.902
303.984
271.498
277.841
314.604
319.569
341.931
271.297
334.618
271.297
341.931
319.569
314.604
255.96
262.168
295.172
265.376
320.387
265.376
295.171
262.168
255.96
258.452
254.161
289.821
265.348
307.674
265.348
289.82
254.16
258.452
267.584
256.916
289.111
267.064
300.3
267.064
289.11
256.915
267.583
273.722
260.481
288.75
268.766
296.267
268.766
288.748
260.479
273.721
276.884
263.047
288.388
270.19
293.955
270.189
288.386
263.045
276.883
278.272
264.712
288.022
271.39
292.522
271.389
288.02
264.709
278.271
278.741
265.814
287.663
272.449
291.591
272.448
287.66
265.811
278.739
278.762
266.602
287.326
273.429
291.007
273.428
287.322
266.599
278.76
278.571
267.22
287.032
274.41
290.827
274.408
287.028
267.216
278.568
278.283
267.748
286.799
275.444
290.867
275.443
286.795
267.744
278.28
277.946
268.244
286.642
276.917
292.926
276.916
286.638
268.24
277.942
277.609
268.726
286.453
278.196
291.704
278.194
286.448
268.721
277.605
277.466
269.366
286.139
282.984
325.413
282.982
286.134
269.361
277.462
277.983
270.267
283.729
270.817
274.244
270.815
283.725
270.262
277.979
280.918
275.47
285.065
249.771
420.846
249.769
285.06
275.464
280.913
285.339
282.477
284.522
241.876
488.53
241.873
284.517
282.471
285.333
288.728
286.244
280.142
238.839
463.21
238.836
280.137
286.237
288.722
291.519
288.929
279.174
244.645
474.683
244.642
279.169
288.922
291.513
294.563
292.003
281.239
252.267
478.644
252.263
281.233
291.996
294.557
298.361
295.99
285.227
259.915
477.162
259.911
285.222
295.982
298.354
303.139
301.047
290.558
267.563
473.806
267.559
290.553
301.04
303.132
308.995
307.222
296.986
275.449
470.248
275.445
296.981
307.214
308.988
315.949
314.506
304.387
283.767
467.112
283.763
304.381
314.499
315.942
323.952
322.807
312.543
292.564
464.543
292.56
312.537
322.799
323.944
332.896
331.959
321.344
302.023
462.78
302.019
321.337
331.951
332.888
342.686
341.517
329.486
311.033
460.528
311.029
329.48
341.509
342.678
353.71
351.65
339.704
323.03
462.365
323.026
339.698
351.642
353.701
367.425
362.114
342.438
324.338
451.952
324.335
342.432
362.106
367.416
389.767
383.305
375.973
371.042
502.654
371.038
375.967
383.297
389.758
421.531
417.224
439.631
441.938
582.533
441.934
439.623
417.216
421.521
452.929
443.85
401.117
394.058
509.697
394.054
401.111
443.841
452.918
546.237
551.404
325.582
176.322
202.351
176.32
325.576
551.395
546.227
271.498
253.688
314.01
256.923
260.386
256.923
314.01
253.688
271.498
319.569
349.159
414.988
301.353
275.738
301.353
414.988
349.158
319.569
262.168
288.318
359.28
303.57
278.555
303.571
359.279
288.317
262.168
254.161
261.658
325.21
298.984
277.974
298.984
325.208
261.657
254.16
256.916
254.999
310.1
295.624
277.43
295.623
310.099
254.998
256.915
260.48
255.064
303.865
293.908
277.452
293.908
303.862
255.062
260.479
263.047
256.779
301.291
293.192
277.907
293.191
301.288
256.777
263.045
264.711
258.671
300.187
292.993
278.644
292.992
300.184
258.668
264.709
265.814
260.419
299.682
293.063
279.589
293.062
299.678
260.415
265.811
266.602
262
299.434
293.297
280.733
293.296
299.43
261.996
266.598
267.22
263.45
299.317
293.68
282.148
293.679
299.312
263.446
267.216
267.748
264.793
299.289
294.226
283.822
294.224
299.284
264.788
267.743
268.244
266.08
299.301
295.04
286.437
295.038
299.296
266.074
268.239
268.725
267.3
299.221
295.795
288.004
295.793
299.215
267.294
268.72
269.366
268.472
298.683
296.663
299.215
296.661
298.677
268.466
269.36
270.267
269.661
296.795
290.319
270.534
290.317
296.789
269.654
270.261
275.47
272.944
294.575
276.937
372.799
276.935
294.569
272.936
275.463
282.477
277.021
290.674
272.587
548.732
272.584
290.668
277.014
282.469
286.243
279.707
287.749
273.666
561.069
273.663
287.743
279.699
286.236
288.928
282.352
288.052
279.959
558.803
279.955
288.046
282.344
288.921
292.003
285.827
291.01
288.538
555.37
288.533
291.004
285.819
291.995
295.989
290.378
295.801
298.108
552.4
298.103
295.794
290.369
295.981
301.047
296.048
301.981
308.383
550.388
308.377
301.975
296.04
301.038
307.222
302.844
309.37
319.415
549.457
319.409
309.363
302.835
307.213
314.506
310.77
317.934
331.364
549.679
331.358
317.926
310.761
314.497
322.806
319.7
327.529
344.464
550.977
344.458
327.522
319.69
322.797
331.959
329.698
338.666
359.038
553.161
359.032
338.658
329.689
331.95
341.516
339.116
348.462
374.998
554.314
374.992
348.454
339.107
341.507
351.649
350.851
368.376
392.319
553.307
392.313
368.369
350.842
351.64
362.114
345.223
332.481
384.963
506.264
384.958
332.474
345.215
362.104
383.305
364.221
511.182
466.184
572.016
466.181
511.174
364.213
383.296
417.224
388.694
582.033
515.52
612.105
515.516
582.025
388.686
417.215
443.85
420.059
581.218
598.03
711.334
598.025
581.21
420.05
443.841
551.404
621.19
660.05
611.652
663.979
611.644
660.041
621.18
551.395
303.984
314.01
345.355
301.62
261.627
301.619
345.354
314.01
303.984
341.931
414.988
447.391
346.474
271.588
346.474
447.389
414.987
341.93
295.171
359.28
428.782
356.611
276.226
356.611
428.781
359.279
295.171
289.821
325.209
399.315
353.334
277.926
353.334
399.313
325.208
289.82
289.111
310.1
379.654
348.072
278.992
348.072
379.652
310.098
289.11
288.749
303.864
368.146
343.754
280.259
343.754
368.143
303.862
288.747
288.388
301.29
361.234
340.587
281.885
340.586
361.23
301.287
288.385
288.022
300.187
356.676
338.264
283.849
338.263
356.672
300.183
288.018
287.663
299.681
353.323
336.528
286.125
336.527
353.319
299.677
287.659
287.325
299.434
350.633
335.247
288.725
335.246
350.628
299.429
287.321
287.031
299.316
348.363
334.384
291.704
334.383
348.357
299.311
287.026
286.798
299.288
346.407
333.946
295.114
333.944
346.4
299.282
286.793
286.641
299.3
344.691
333.951
299.103
333.95
344.684
299.294
286.635
286.452
299.22
343.044
334.257
303.363
334.255
343.037
299.213
286.446
286.137
298.682
341.137
334.599
309.185
334.597
341.13
298.675
286.131
283.728
296.794
338.378
333.577
310.349
333.575
338.371
296.787
283.721
285.063
294.574
336.555
333.165
329.886
333.163
336.547
294.566
285.056
284.521
290.673
335.519
334.521
385.039
334.518
335.512
290.665
284.513
280.141
287.748
334.613
336.446
411.959
336.442
334.605
287.74
280.133
279.173
288.051
335.423
340.882
426.64
340.878
335.414
288.043
279.165
281.237
291.009
338.227
347.654
437.666
347.65
338.219
291.001
281.229
285.226
295.8
342.741
356.202
448.115
356.197
342.732
295.791
285.218
290.557
301.981
348.709
366.187
459.021
366.182
348.7
301.972
290.549
296.985
309.369
356.04
377.521
470.804
377.516
356.03
309.36
296.977
304.386
317.933
364.721
390.253
483.584
390.247
364.712
317.924
304.377
312.542
327.529
375.04
404.99
497.778
404.983
375.031
327.519
312.534
321.343
338.665
386.942
421.627
513.09
421.621
386.932
338.656
321.334
329.486
348.462
404.511
447.649
535.303
447.643
404.501
348.452
329.477
339.705
368.376
427.152
470.483
554.044
470.477
427.143
368.367
339.696
342.438
332.481
527.827
633.023
690.293
633.016
527.816
332.472
342.43
375.974
511.183
1207
759.921
864.385
759.917
1206.99
511.174
375.965
439.631
582.033
582.024
439.621
401.119
581.218
385.555
395.003
498.769
395
385.549
581.209
401.109
325.583
660.052
536.758
538.95
604.623
538.944
536.749
660.041
325.577
483.972
493.899
552.792
493.893
483.965
490.834
491.194
547.242
491.188
490.827
502.072
496.17
549.035
496.164
502.064
510.847
501.816
551.931
501.81
510.839
518.15
507.482
555.223
507.476
518.142
524.714
513.035
558.649
513.029
524.707
530.98
518.52
562.144
518.514
530.972
537.15
523.995
565.7
523.989
537.142
543.224
529.412
569.262
529.406
543.216
549.511
535.036
573.014
535.029
549.503
554.782
539.735
576.14
539.729
554.774
564.448
548.436
582.113
548.43
564.441
245.901
256.922
301.619
307.816
280.285
307.813
301.618
256.922
245.901
271.297
301.352
346.473
328.028
284.117
328.026
346.471
301.352
271.297
265.376
303.57
356.61
336.382
285.411
336.381
356.608
303.569
265.376
265.347
298.983
353.333
337.079
285.529
337.077
353.33
298.981
265.347
267.064
295.623
348.07
335.286
285.909
335.284
348.067
295.621
267.063
268.765
293.907
343.752
333.27
287.097
333.268
343.749
293.905
268.764
270.188
293.19
340.585
331.725
289.158
331.723
340.581
293.188
270.186
271.389
292.991
338.261
330.79
292.021
330.789
338.257
292.988
271.387
272.447
293.061
336.525
330.479
295.616
330.477
336.521
293.057
272.444
273.427
293.295
335.245
330.802
299.916
330.8
335.24
293.291
273.424
274.407
293.678
334.381
331.797
304.931
331.795
334.376
293.673
274.404
275.442
294.223
333.943
333.518
310.682
333.515
333.938
294.218
275.438
276.915
295.037
333.949
336.01
317.193
336.008
333.943
295.032
276.91
278.194
295.792
334.255
339.265
324.444
339.262
334.249
295.787
278.189
282.982
296.66
334.597
343.29
332.545
343.286
334.59
296.654
282.977
270.815
290.316
333.574
348.064
341.739
348.061
333.567
290.31
270.809
249.769
276.935
333.162
355.776
355.42
355.772
333.155
276.928
249.764
241.874
272.584
334.518
365.019
372.101
365.014
334.511
272.578
241.87
238.837
273.663
336.443
372.955
386.238
372.949
336.435
273.657
238.833
244.643
279.957
340.879
380.955
399.152
380.95
340.871
279.95
244.64
252.265
288.535
347.651
389.968
412.152
389.962
347.643
288.528
252.261
259.913
298.105
356.199
400.231
425.792
400.225
356.19
298.098
259.909
267.561
308.38
366.184
411.744
440.241
411.738
366.175
308.372
267.556
275.447
319.412
377.519
424.527
455.59
424.52
377.509
319.404
275.442
283.765
331.36
390.25
438.709
472.003
438.702
390.241
331.352
283.76
292.562
344.46
404.987
454.882
490.024
454.875
404.977
344.452
292.557
302.021
359.035
421.625
473.752
510.427
473.745
421.615
359.026
302.015
311.031
374.995
447.647
500.682
537.366
500.675
447.637
374.986
311.025
323.028
392.315
470.481
532.809
569.432
532.802
470.471
392.307
323.023
324.336
384.96
633.021
643.56
652.913
643.554
633.009
384.953
324.331
371.04
466.182
759.918
429.082
475.051
429.08
759.91
466.175
371.034
441.936
515.518
515.511
441.93
394.057
598.028
395.002
311.197
381.292
311.195
394.998
598.02
394.051
176.323
611.652
538.949
500.802
541.371
500.799
538.942
611.641
176.319
493.899
484.264
529.06
484.26
493.891
491.194
473.157
515.685
473.153
491.185
496.17
472.172
511.507
472.168
496.162
501.816
475.111
511.991
475.106
501.807
507.482
479.618
514.574
479.613
507.474
513.035
484.642
517.963
484.637
513.026
518.521
489.819
521.643
489.814
518.512
523.995
495.054
525.436
495.049
523.987
529.412
500.249
529.235
500.244
529.404
535.036
505.639
533.198
505.634
535.028
539.736
510.126
536.499
510.121
539.727
548.437
518.477
542.707
518.472
548.429
310.223
260.385
261.625
280.283
288.181
280.281
261.624
260.384
310.223
334.617
275.737
271.586
284.116
288.482
284.113
271.584
275.736
334.616
320.386
278.554
276.225
285.409
287.364
285.407
276.223
278.553
320.384
307.672
277.972
277.924
285.528
286.398
285.525
277.922
277.971
307.67
300.298
277.429
278.99
285.907
286.667
285.905
278.988
277.427
300.296
296.265
277.45
280.257
287.095
288.432
287.092
280.255
277.447
296.263
293.953
277.905
281.883
289.156
291.566
289.153
281.88
277.903
293.951
292.52
278.641
283.846
292.018
295.861
292.016
283.843
278.638
292.517
291.589
279.586
286.122
295.614
301.143
295.611
286.119
279.583
291.585
291.004
280.73
288.722
299.914
307.305
299.911
288.719
280.726
291.001
290.825
282.144
291.701
304.928
314.287
304.925
291.697
282.141
290.821
290.864
283.818
295.11
310.68
322.056
310.676
295.106
283.814
290.86
292.922
286.433
299.1
317.19
330.586
317.187
299.095
286.429
292.918
291.701
288.001
303.359
324.442
339.858
324.438
303.354
287.996
291.696
325.409
299.211
309.181
332.543
350.051
332.539
309.176
299.206
325.403
274.24
270.531
310.345
341.737
361.749
341.732
310.339
270.526
274.234
420.845
372.795
329.882
355.417
377.802
355.412
329.875
372.79
420.842
488.53
548.728
385.034
372.099
395.717
372.093
385.027
548.723
488.529
463.21
561.065
411.955
386.236
411.078
386.23
411.947
561.06
463.21
474.683
558.799
426.635
399.149
424.824
399.143
426.627
558.794
474.683
478.644
555.367
437.662
412.149
438.321
412.143
437.654
555.361
478.644
477.162
552.398
448.11
425.789
452.248
425.782
448.102
552.391
477.161
473.806
550.386
459.017
440.238
466.846
440.231
459.009
550.38
473.805
470.248
549.455
470.8
455.588
482.224
455.58
470.792
549.449
470.247
467.113
549.677
483.58
472.001
498.592
471.994
483.571
549.671
467.111
464.544
550.976
497.775
490.022
516.516
490.015
497.766
550.969
464.543
462.781
553.16
513.087
510.426
536.954
510.419
513.077
553.154
462.779
460.53
554.315
535.301
537.365
563.165
537.358
535.291
554.308
460.528
462.367
553.308
554.042
569.431
594.975
569.424
554.033
553.3
462.366
451.955
506.264
690.292
652.913
652.223
652.907
690.281
506.257
451.954
502.657
572.017
864.384
475.051
537.379
475.049
864.375
572.011
502.655
582.537
612.106
612.099
582.534
509.702
711.338
498.771
381.29
363.849
381.287
498.766
711.332
509.699
202.353
663.984
604.627
541.372
477.57
541.368
604.622
663.979
202.353
552.797
529.062
485.224
529.058
552.792
547.246
515.687
478.762
515.684
547.242
549.039
511.51
476.256
511.507
549.035
551.936
511.993
477.329
511.99
551.931
555.227
514.576
480.351
514.573
555.223
558.653
517.966
484.198
517.963
558.649
562.149
521.645
488.342
521.642
562.144
565.705
525.439
492.587
525.436
565.7
569.267
529.238
496.809
529.235
569.262
573.019
533.201
501.17
533.198
573.014
576.145
536.502
504.791
536.499
576.141
582.118
542.71
511.539
542.707
582.113
245.901
256.922
301.618
307.813
280.28
307.812
301.618
256.922
245.901
271.297
301.353
346.472
328.025
284.113
328.025
346.471
301.352
271.297
265.376
303.57
356.609
336.38
285.406
336.379
356.609
303.569
265.376
265.347
298.983
353.332
337.076
285.524
337.076
353.331
298.982
265.346
267.063
295.622
348.069
335.283
285.904
335.282
348.068
295.621
267.062
268.765
293.906
343.751
333.267
287.092
333.266
343.75
293.905
268.764
270.187
293.189
340.584
331.722
289.153
331.721
340.582
293.187
270.186
271.388
292.99
338.26
330.787
292.015
330.787
338.257
292.988
271.386
272.446
293.059
336.524
330.475
295.61
330.475
336.521
293.057
272.444
273.426
293.293
335.243
330.798
299.91
330.797
335.24
293.291
273.424
274.406
293.676
334.379
331.793
304.924
331.792
334.376
293.673
274.403
275.44
294.221
333.941
333.513
310.675
333.512
333.938
294.217
275.437
276.912
295.035
333.946
336.006
317.185
336.004
333.943
295.031
276.91
278.191
295.79
334.252
339.26
324.437
339.258
334.248
295.786
278.188
282.979
296.657
334.593
343.284
332.537
343.282
334.589
296.653
282.975
270.812
290.314
333.571
348.058
341.73
348.056
333.566
290.309
270.808
249.766
276.932
333.158
355.769
355.411
355.767
333.154
276.928
249.763
241.872
272.581
334.514
365.011
372.092
365.009
334.509
272.577
241.869
238.835
273.66
336.438
372.947
386.228
372.944
336.433
273.656
238.833
244.641
279.953
340.874
380.947
399.141
380.945
340.869
279.949
244.639
252.262
288.531
347.646
389.96
412.142
389.956
347.641
288.527
252.261
259.91
298.101
356.194
400.222
425.781
400.219
356.189
298.097
259.908
267.559
308.376
366.179
411.736
440.23
411.732
366.174
308.372
267.557
275.445
319.409
377.514
424.519
455.579
424.515
377.508
319.405
275.443
283.764
331.358
390.246
438.701
471.993
438.697
390.24
331.354
283.762
292.561
344.458
404.982
454.874
490.014
454.869
404.977
344.454
292.559
302.021
359.034
421.621
473.745
510.418
473.741
421.615
359.03
302.018
311.031
374.995
447.644
500.675
537.358
500.671
447.637
374.99
311.029
323.03
392.316
470.478
532.803
569.424
532.799
470.472
392.312
323.027
324.338
384.962
633.019
643.555
652.907
643.551
633.012
384.958
324.336
371.042
466.184
759.918
429.081
475.05
429.079
759.911
466.18
371.04
441.939
515.52
515.515
441.936
394.059
598.03
395.004
311.199
381.291
311.197
395.002
598.025
394.056
176.322
611.651
538.95
500.805
541.373
500.802
538.945
611.645
176.321
493.898
484.266
529.061
484.264
493.894
491.193
473.159
515.687
473.156
491.189
496.169
472.173
511.509
472.171
496.165
501.815
475.112
511.993
475.109
501.811
507.481
479.619
514.576
479.616
507.477
513.033
484.643
517.966
484.64
513.03
518.519
489.82
521.645
489.817
518.515
523.994
495.054
525.439
495.052
523.99
529.411
500.25
529.238
500.247
529.407
535.035
505.64
533.201
505.637
535.031
539.734
510.127
536.502
510.125
539.73
548.435
518.478
542.71
518.475
548.432
303.984
314.01
345.353
301.617
261.623
301.617
345.353
314.01
303.984
341.93
414.987
447.388
346.471
271.583
346.471
447.388
414.987
341.93
295.171
359.278
428.78
356.608
276.222
356.608
428.779
359.278
295.171
289.819
325.207
399.312
353.33
277.921
353.33
399.311
325.207
289.819
289.109
310.097
379.65
348.067
278.987
348.067
379.649
310.097
289.109
288.747
303.86
368.14
343.749
280.254
343.749
368.139
303.86
288.746
288.384
301.286
361.227
340.581
281.879
340.581
361.226
301.285
288.384
288.018
300.182
356.669
338.256
283.842
338.257
356.667
300.181
288.017
287.658
299.676
353.316
336.52
286.118
336.52
353.314
299.674
287.657
287.32
299.427
350.625
335.239
288.718
335.239
350.623
299.426
287.319
287.025
299.309
348.354
334.375
291.696
334.375
348.352
299.307
287.024
286.792
299.28
346.397
333.937
295.105
333.937
346.395
299.279
286.791
286.635
299.293
344.681
333.942
299.094
333.942
344.678
299.291
286.633
286.445
299.212
343.034
334.247
303.353
334.247
343.031
299.21
286.443
286.131
298.674
341.127
334.589
309.175
334.589
341.124
298.671
286.129
283.722
296.786
338.367
333.566
310.338
333.566
338.365
296.783
283.719
285.057
294.565
336.544
333.154
329.874
333.153
336.541
294.562
285.054
284.514
290.665
335.508
334.509
385.026
334.509
335.506
290.662
284.511
280.134
287.74
334.602
336.434
411.946
336.433
334.599
287.737
280.131
279.166
288.043
335.412
340.869
426.626
340.868
335.409
288.04
279.163
281.231
291.001
338.217
347.642
437.653
347.64
338.213
290.998
281.227
285.219
295.791
342.73
356.189
448.101
356.188
342.727
295.788
285.216
290.55
301.972
348.698
366.175
459.007
366.173
348.695
301.968
290.546
296.978
309.36
356.029
377.509
470.791
377.507
356.025
309.357
296.975
304.379
317.924
364.71
390.241
483.571
390.239
364.707
317.921
304.375
312.535
327.52
375.03
404.978
497.765
404.976
375.027
327.516
312.532
321.336
338.657
386.932
421.616
513.077
421.614
386.928
338.654
321.332
329.479
348.454
404.501
447.639
535.291
447.636
404.498
348.45
329.475
339.698
368.369
427.143
470.473
554.033
470.471
427.14
368.365
339.694
342.432
332.475
527.82
633.014
690.282
633.011
527.815
332.471
342.429
375.968
511.178
1206.99
759.913
864.378
759.912
1206.99
511.174
375.964
439.625
582.029
582.026
439.621
401.113
581.214
385.552
395.002
498.767
395.001
385.551
581.21
401.109
325.579
660.047
536.754
538.947
604.625
538.946
536.752
660.042
325.576
483.969
493.896
552.795
493.894
483.966
490.832
491.191
547.244
491.189
490.828
502.069
496.167
549.037
496.166
502.066
510.844
501.813
551.934
501.811
510.84
518.148
507.479
555.225
507.478
518.144
524.712
513.032
558.652
513.03
524.708
530.978
518.518
562.147
518.516
530.974
537.148
523.993
565.703
523.991
537.143
543.222
529.41
569.265
529.408
543.218
549.509
535.034
573.017
535.032
549.505
554.78
539.733
576.144
539.731
554.776
564.447
548.434
582.116
548.432
564.443
271.498
253.687
314.01
256.922
260.383
256.922
314.01
253.687
271.498
319.569
349.158
414.987
301.352
275.735
301.352
414.987
349.158
319.569
262.167
288.317
359.279
303.568
278.552
303.569
359.278
288.317
262.167
254.16
261.656
325.207
298.981
277.97
298.981
325.206
261.656
254.16
256.915
254.997
310.097
295.62
277.426
295.62
310.096
254.997
256.915
260.478
255.061
303.861
293.904
277.447
293.904
303.86
255.061
260.478
263.044
256.776
301.286
293.187
277.902
293.187
301.285
256.775
263.043
264.708
258.667
300.182
292.987
278.638
292.987
300.18
258.666
264.707
265.81
260.414
299.675
293.057
279.582
293.056
299.674
260.413
265.809
266.597
261.994
299.427
293.29
280.726
293.29
299.426
261.993
266.597
267.215
263.444
299.309
293.672
282.14
293.672
299.307
263.443
267.214
267.742
264.786
299.28
294.217
283.814
294.217
299.278
264.785
267.741
268.238
266.072
299.292
295.031
286.428
295.031
299.29
266.071
268.237
268.719
267.292
299.212
295.786
287.995
295.785
299.21
267.29
268.717
269.359
268.464
298.673
296.653
299.205
296.652
298.671
268.462
269.357
270.26
269.652
296.785
290.309
270.525
290.309
296.783
269.65
270.258
275.462
272.934
294.564
276.927
372.789
276.927
294.562
272.932
275.461
282.469
277.012
290.664
272.578
548.722
272.577
290.662
277.01
282.467
286.235
279.697
287.739
273.657
561.06
273.656
287.737
279.695
286.233
288.92
282.342
288.041
279.95
558.794
279.948
288.04
282.34
288.918
291.994
285.817
291
288.528
555.361
288.526
290.998
285.815
291.992
295.98
290.368
295.79
298.098
552.392
298.096
295.788
290.365
295.978
301.038
296.038
301.971
308.373
550.38
308.371
301.969
296.036
301.035
307.213
302.834
309.359
319.405
549.448
319.403
309.357
302.832
307.21
314.497
310.76
317.923
331.354
549.671
331.352
317.921
310.757
314.495
322.798
319.69
327.519
344.455
550.969
344.452
327.517
319.687
322.795
331.95
329.689
338.656
359.03
553.154
359.027
338.654
329.686
331.948
341.508
339.108
348.453
374.99
554.309
374.988
348.451
339.105
341.505
351.642
350.843
368.368
392.311
553.302
392.31
368.366
350.841
351.639
362.106
345.216
332.473
384.957
506.259
384.956
332.472
345.213
362.104
383.298
364.215
511.177
466.18
572.013
466.179
511.175
364.212
383.296
417.218
388.688
582.029
515.516
612.101
515.515
582.026
388.686
417.216
443.844
420.053
581.213
598.026
711.335
598.024
581.211
420.051
443.841
551.401
621.187
660.047
611.648
663.982
611.645
660.044
621.184
551.399
277.841
271.498
303.984
245.901
310.222
245.901
303.984
271.498
277.841
314.604
319.569
341.93
271.297
334.616
271.296
341.93
319.569
314.604
255.96
262.167
295.171
265.376
320.384
265.375
295.17
262.167
255.96
258.452
254.16
289.819
265.346
307.67
265.346
289.819
254.16
258.452
267.583
256.915
289.109
267.062
300.296
267.062
289.109
256.914
267.583
273.72
260.478
288.747
268.763
296.262
268.763
288.746
260.478
273.72
276.882
263.044
288.384
270.186
293.95
270.186
288.384
263.043
276.882
278.27
264.708
288.017
271.386
292.517
271.386
288.017
264.707
278.269
278.738
265.81
287.658
272.443
291.585
272.443
287.657
265.809
278.738
278.758
266.597
287.319
273.423
291
273.423
287.319
266.596
278.757
278.567
267.215
287.025
274.403
290.82
274.403
287.024
267.214
278.566
278.278
267.742
286.791
275.437
290.859
275.437
286.79
267.741
278.277
277.941
268.238
286.634
276.91
292.917
276.909
286.633
268.236
277.939
277.604
268.719
286.444
278.188
291.696
278.188
286.443
268.717
277.602
277.46
269.359
286.13
282.975
325.403
282.975
286.128
269.357
277.458
277.978
270.26
283.72
270.809
274.234
270.808
283.719
270.258
277.976
280.912
275.462
285.055
249.764
420.842
249.763
285.054
275.46
280.91
285.332
282.468
284.512
241.87
488.529
241.869
284.511
282.466
285.33
288.721
286.235
280.132
238.834
463.21
238.833
280.131
286.233
288.719
291.511
288.92
279.164
244.64
474.683
244.639
279.163
288.918
291.509
294.556
291.994
281.229
252.261
478.643
252.26
281.227
291.992
294.554
298.353
295.98
285.217
259.909
477.161
259.908
285.216
295.978
298.351
303.132
301.038
290.548
267.557
473.805
267.556
290.547
301.035
303.129
308.987
307.212
296.976
275.444
470.247
275.442
296.975
307.21
308.985
315.941
314.497
304.377
283.762
467.112
283.76
304.376
314.495
315.939
323.944
322.797
312.534
292.559
464.543
292.558
312.532
322.795
323.941
332.889
331.95
321.334
302.018
462.78
302.017
321.333
331.948
332.886
342.679
341.508
329.477
311.029
460.529
311.027
329.476
341.505
342.676
353.702
351.641
339.697
323.027
462.367
323.026
339.695
351.639
353.7
367.418
362.106
342.431
324.335
451.955
324.334
342.429
362.104
367.415
389.76
383.298
375.966
371.039
502.657
371.038
375.965
383.296
389.758
421.524
417.218
439.623
441.935
582.536
441.934
439.622
417.216
421.522
452.922
443.844
401.112
394.056
509.701
394.055
401.11
443.842
452.919
546.234
551.401
325.579
176.321
202.354
176.321
325.577
551.4
546.233
)
;

boundaryField
{
    injectionXMinus
    {
        type            fixedValue;
        value           uniform 400;
    }
    injectionXPlus
    {
        type            fixedValue;
        value           uniform 400;
    }
    injectionYMinus
    {
        type            fixedValue;
        value           uniform 400;
    }
    injectionYPlus
    {
        type            fixedValue;
        value           uniform 400;
    }
    inletXMinus
    {
        type            fixedValue;
        value           uniform 293.15;
    }
    inletXPlus
    {
        type            fixedValue;
        value           uniform 293.15;
    }
    inletYMinus
    {
        type            fixedValue;
        value           uniform 293.15;
    }
    inletYPlus
    {
        type            fixedValue;
        value           uniform 293.15;
    }
    outlet
    {
        type            zeroGradient;
    }
    valve
    {
        type            zeroGradient;
    }
    walls
    {
        type            zeroGradient;
    }
}


// ************************************************************************* //
