/*--------------------------------*- C++ -*----------------------------------*\
  =========                 |
  \\      /  F ield         | OpenFOAM: The Open Source CFD Toolbox
   \\    /   O peration     | Website:  https://openfoam.org
    \\  /    A nd           | Version:  6
     \\/     M anipulation  |
\*---------------------------------------------------------------------------*/
FoamFile
{
    version     2.0;
    format      ascii;
    class       volScalarField;
    location    "0.8";
    object      alpha_exh;
}
// * * * * * * * * * * * * * * * * * * * * * * * * * * * * * * * * * * * * * //

dimensions      [0 0 0 0 0 0 0];

internalField   nonuniform List<scalar> 
3029
(
1.92863e-07
-1.07928e-06
9.53776e-07
-1.41442e-05
7.00222e-05
-1.36182e-05
1.17735e-06
-9.66682e-07
-4.80297e-07
-5.14811e-07
-1.80861e-06
1.34776e-07
-1.65576e-05
7.78197e-05
-1.57019e-05
5.30468e-07
-1.32857e-06
-6.00878e-07
-1.94734e-06
-4.65421e-06
-2.20816e-06
-2.15499e-05
0.000116189
-2.00933e-05
-8.88697e-07
-3.17586e-06
-1.8204e-06
-4.17225e-06
-8.705e-06
-5.43379e-06
-2.54903e-05
0.000201267
-2.32507e-05
-2.74762e-06
-5.76548e-06
-3.79206e-06
-7.10745e-06
-1.34923e-05
-8.12024e-06
-2.13812e-05
0.000367212
-1.8283e-05
-3.82791e-06
-8.59941e-06
-6.13749e-06
-9.65524e-06
-1.72641e-05
-6.58023e-06
8.04099e-06
0.000678212
1.20104e-05
-6.13466e-07
-1.02363e-05
-7.92692e-06
-9.95652e-06
-1.71269e-05
7.02979e-06
0.000100222
0.0012441
0.000105056
1.47196e-05
-7.68009e-06
-7.03233e-06
-1.0224e-06
-2.89942e-06
5.37077e-05
0.000334246
0.00224444
0.000339919
6.30706e-05
8.85172e-06
3.08294e-06
3.34496e-05
4.85196e-05
0.000180417
0.000862485
0.00395912
0.000868971
0.000191471
6.27404e-05
3.91969e-05
0.000136048
0.00019585
0.000496589
0.00195323
0.00678405
0.00196048
0.000509232
0.000212258
0.000143247
0.000403872
0.000566462
0.00121954
0.00407855
0.011355
0.00408647
0.00123377
0.000585204
0.000413
0.0010484
0.00144061
0.00280921
0.00785339
0.0181246
0.00786184
0.00282484
0.00146129
0.00105915
0.00246558
0.0032579
0.00581011
0.0146991
0.029525
0.0147079
0.00582704
0.00328062
0.00247846
0.00526078
0.00696443
0.01229
0.0245826
0.0401053
0.0245915
0.0123078
0.00698865
0.00527539
0.0103444
0.0128882
0.0194882
0.0475773
0.0883544
0.0475854
0.0195064
0.0129139
0.0103613
0.0177491
0.0236873
0.0533966
0.0692158
-0.0437281
0.0692224
0.0534136
0.0237136
0.0177678
0.0293176
0.0427224
0.0317187
-0.147442
-0.26982
-0.147439
0.0317325
0.0427483
0.0293386
0.0450607
0.0576229
-0.0162671
-0.205575
-0.208931
-0.205574
-0.0162566
0.0576475
0.0450831
0.0630844
0.0713826
-0.0359185
-0.210737
-0.188736
-0.210736
-0.0359093
0.0714063
0.0631078
0.0828847
0.087705
-0.0338756
-0.200947
-0.177552
-0.200946
-0.0338667
0.0877279
0.0829085
0.104767
0.107364
-0.0203714
-0.18629
-0.1677
-0.186289
-0.0203622
0.107387
0.104791
0.129107
0.130092
-0.00125336
-0.169812
-0.157717
-0.16981
-0.00124385
0.130113
0.12913
0.156085
0.155459
0.0206981
-0.152561
-0.147403
-0.152558
0.0207079
0.15548
0.156109
0.185672
0.183051
0.0441921
-0.134937
-0.136814
-0.134935
0.044202
0.183071
0.185694
0.217647
0.212429
0.0685116
-0.117105
-0.126019
-0.117102
0.0685216
0.212447
0.217669
0.251639
0.243075
0.0931206
-0.0991481
-0.11506
-0.0991452
0.0931303
0.243093
0.25166
0.287132
0.274363
0.117553
-0.0809963
-0.103849
-0.0809933
0.117563
0.274379
0.287152
0.323474
0.305518
0.141217
-0.0627563
-0.0926294
-0.0627533
0.141226
0.305532
0.323493
0.359865
0.335825
0.164873
-0.0421421
-0.0789988
-0.0421393
0.164881
0.335838
0.359883
0.395513
0.364858
0.1877
-0.0216731
-0.0669572
-0.0216705
0.187707
0.36487
0.395529
0.429571
0.393683
0.222102
0.0243986
-0.025354
0.0244007
0.222108
0.393693
0.429587
0.465651
0.426129
0.256169
0.0540317
-0.0042951
0.0540334
0.256174
0.426138
0.465666
0.510424
0.475652
0.303616
0.0535626
-0.0352397
0.0535641
0.303621
0.475661
0.510439
0.611404
0.596053
0.477673
0.185312
-0.0129676
0.185313
0.477677
0.596062
0.611416
-1.11057e-06
-4.69832e-06
-8.40171e-06
-3.21765e-06
0.000215098
-1.30317e-06
-6.81866e-06
-3.62515e-06
-1.29477e-06
-1.79206e-06
-6.24988e-06
-9.78904e-06
-4.68253e-06
0.000235477
-2.25134e-06
-7.57309e-06
-4.34574e-06
-1.27714e-06
-4.59007e-06
-9.48728e-06
-1.20795e-05
-5.32454e-06
0.000305156
-2.15934e-06
-8.74029e-06
-6.30474e-06
-2.89667e-06
-8.58153e-06
-1.45547e-05
-1.32195e-05
1.20878e-06
0.000468555
5.28346e-06
-8.29196e-06
-9.45075e-06
-5.17503e-06
-1.32844e-05
-2.04303e-05
-1.03166e-05
3.49891e-05
0.000810257
4.0037e-05
-3.57804e-06
-1.29438e-05
-7.67812e-06
-1.6948e-05
-2.37509e-05
4.76265e-06
0.000145276
0.0014722
0.000151318
1.34614e-05
-1.35864e-05
-8.84158e-06
-1.66856e-05
-1.77741e-05
5.13517e-05
0.000429488
0.00266834
0.000436489
6.19909e-05
-4.82393e-06
-5.84096e-06
-2.32277e-06
1.58891e-05
0.000177879
0.00106507
0.00470602
0.001073
0.000190483
3.1648e-05
1.12437e-05
4.92381e-05
0.00011844
0.00048763
0.00234398
0.00800384
0.00235276
0.000502085
0.000136944
6.56051e-05
0.000196709
0.00038497
0.00118954
0.00471632
0.0131023
0.00472587
0.00120582
0.000406114
0.000215679
0.00056746
0.00101301
0.00265214
0.00881457
0.0206898
0.00882471
0.00267005
0.00103665
0.000589078
0.00144174
0.00238065
0.00549888
0.0154933
0.0314531
0.0155039
0.0055183
0.00240659
0.00146569
0.00325917
0.00509581
0.0105327
0.0256745
0.0464922
0.0256852
0.0105533
0.00512381
0.00328544
0.00696585
0.0100939
0.0192738
0.0410493
0.0650773
0.0410598
0.0192952
0.0101236
0.00699403
0.0128898
0.0184489
0.0315969
0.059544
0.093218
0.0595539
0.0316186
0.0184799
0.0129198
0.0236893
0.0306744
0.0542837
0.102392
0.109636
0.102401
0.0543046
0.030706
0.0237205
0.042725
0.0499243
0.0758718
0.0372921
-0.0991511
0.0372984
0.0758906
0.0499557
0.042757
0.0576261
0.0727103
0.0808118
-0.0431678
-0.180608
-0.0431633
0.0808283
0.0727408
0.0576577
0.0713861
0.0953203
0.0861429
-0.0741633
-0.190866
-0.0741593
0.086158
0.0953498
0.071417
0.0877085
0.117972
0.0981075
-0.0750351
-0.179775
-0.0750311
0.098122
0.118001
0.0877385
0.107368
0.141667
0.115829
-0.06169
-0.161562
-0.0616857
0.115843
0.141695
0.107397
0.130095
0.167043
0.137408
-0.0420657
-0.140617
-0.042061
0.137422
0.167069
0.130123
0.155462
0.194299
0.161501
-0.0196512
-0.118453
-0.0196464
0.161514
0.194324
0.15549
0.183054
0.223344
0.187257
0.00422868
-0.0954648
0.00423359
0.187269
0.223367
0.18308
0.212432
0.253902
0.214139
0.0291323
-0.0715871
0.0291372
0.214151
0.253923
0.212456
0.243078
0.285566
0.241735
0.0551571
-0.0463998
0.0551619
0.241747
0.285585
0.243101
0.274366
0.317884
0.269962
0.0833255
-0.0184385
0.08333
0.269973
0.317902
0.274387
0.305521
0.349969
0.29824
0.115288
0.014671
0.115292
0.298249
0.349984
0.30554
0.335828
0.382136
0.331503
0.16082
0.0649373
0.160823
0.331511
0.382149
0.335845
0.364861
0.409098
0.356625
0.215463
0.129907
0.215465
0.356632
0.40911
0.364877
0.393686
0.44456
0.467754
0.405773
0.359366
0.405774
0.467757
0.44457
0.3937
0.426132
0.464895
0.505838
0.4757
0.440053
0.475701
0.505841
0.464903
0.426145
0.475655
0.48622
0.450163
0.335363
0.278957
0.335364
0.450167
0.486228
0.475667
0.596055
0.599793
0.520457
0.245958
0.0429345
0.245959
0.520463
0.599802
0.596064
9.32932e-07
-8.18126e-06
4.11231e-05
-0.000176385
0.000102887
-0.000172827
4.41368e-05
-6.38606e-06
9.65847e-07
2.24585e-07
-9.37902e-06
3.99387e-05
-0.000165581
0.000324858
-0.000161394
4.38297e-05
-6.69543e-06
8.12263e-07
-1.88304e-06
-1.14033e-05
3.97555e-05
-0.000117263
0.000891491
-0.000112351
4.48207e-05
-7.31571e-06
8.28685e-08
-4.76054e-06
-1.21653e-05
4.21757e-05
4.6436e-05
0.00199748
5.21427e-05
4.8724e-05
-6.08333e-06
-7.37714e-07
-6.99998e-06
-8.7963e-06
6.20792e-05
0.00046132
0.00389917
0.000467826
7.02544e-05
-4.62786e-07
-6.7398e-07
-4.94793e-06
6.79653e-06
0.00014303
0.00134108
0.00692007
0.00134835
0.0001529
1.75943e-05
3.91677e-06
9.20582e-06
5.39099e-05
0.000376547
0.0029938
0.0114492
0.00300177
0.000388083
6.7142e-05
2.05782e-05
5.64307e-05
0.000180942
0.000935855
0.00584335
0.017946
0.00585191
0.000949012
0.000196652
7.037e-05
0.000183676
0.00049116
0.00211344
0.0104385
0.0269335
0.0104476
0.00212811
0.000509202
0.000200077
0.000500357
0.00119349
0.00436822
0.0174538
0.0389852
0.0174631
0.00438429
0.00121383
0.000519196
0.00122379
0.00265646
0.00835134
0.0276496
0.0546729
0.0276591
0.00836862
0.00267887
0.00124492
0.00281389
0.0055035
0.0149179
0.041823
0.0745236
0.0418324
0.0149362
0.00552786
0.00283721
0.00581521
0.0105375
0.0250318
0.0605609
0.0986281
0.0605699
0.0250507
0.0105635
0.00584051
0.0122955
0.0192788
0.0397204
0.0844331
0.127295
0.0844416
0.0397396
0.0193061
0.0123225
0.0194942
0.0316022
0.0594278
0.111472
0.15513
0.11148
0.059447
0.0316302
0.0195224
0.0534038
0.0542895
0.0839612
0.144342
0.194908
0.144349
0.0839801
0.0543179
0.0534328
0.0317262
0.0758783
0.112308
0.168912
0.169693
0.168919
0.112327
0.0759058
0.0317523
-0.0162607
0.0808184
0.139748
0.171735
0.109625
0.171741
0.139766
0.0808442
-0.016239
-0.0359129
0.0861493
0.165284
0.176372
0.0859026
0.176378
0.1653
0.0861735
-0.0358935
-0.0338705
0.0981135
0.190544
0.189803
0.0905893
0.189808
0.19056
0.0981364
-0.0338521
-0.0203666
0.115834
0.216661
0.210209
0.110212
0.210214
0.216676
0.115856
-0.0203486
-0.00124875
0.137413
0.244027
0.234798
0.136774
0.234803
0.244041
0.137434
-0.00123117
0.0207025
0.161506
0.272578
0.261737
0.166455
0.261742
0.27259
0.161525
0.0207197
0.0441964
0.187261
0.302091
0.289962
0.197639
0.289967
0.302103
0.18728
0.0442131
0.0685159
0.214144
0.332312
0.319045
0.229857
0.319049
0.332323
0.214161
0.0685318
0.0931249
0.24174
0.363016
0.349076
0.263546
0.34908
0.363026
0.241756
0.0931399
0.117557
0.269967
0.394294
0.380911
0.300383
0.380915
0.394302
0.269981
0.117571
0.141222
0.298244
0.426065
0.416806
0.34436
0.416809
0.426072
0.298257
0.141235
0.164877
0.331507
0.463601
0.46372
0.405661
0.463722
0.463607
0.331518
0.164889
0.187704
0.356629
0.498009
0.534833
0.504616
0.534834
0.498013
0.356639
0.187715
0.222107
0.467757
0.712779
0.75779
0.770871
0.757789
0.712778
0.467763
0.222116
0.256174
0.505841
0.505845
0.256182
0.303621
0.450167
0.504174
0.459604
0.405855
0.459605
0.504177
0.450172
0.303629
0.477677
0.520461
0.534043
0.387669
0.234538
0.38767
0.534049
0.520469
0.477684
0.55133
0.384246
0.199566
0.384248
0.551336
0.562764
0.392093
0.197865
0.392095
0.562769
0.571441
0.400413
0.203854
0.400415
0.571446
0.578961
0.407994
0.211421
0.407995
0.578966
0.585943
0.415052
0.219244
0.415053
0.585948
0.592625
0.421822
0.227065
0.421822
0.59263
0.59909
0.428413
0.234838
0.428414
0.599095
0.605374
0.43489
0.242585
0.434891
0.605378
0.611457
0.441217
0.250222
0.441217
0.611461
0.617507
0.447649
0.258131
0.44765
0.617511
0.622711
0.453079
0.264691
0.45308
0.622715
0.631354
0.462711
0.276952
0.462711
0.631357
-1.39248e-05
-1.88679e-06
-0.000174723
0.00304686
0.0189613
0.00305228
-0.000169665
1.27861e-06
-1.35453e-05
-1.57163e-05
-2.71443e-06
-0.000163489
0.00355845
0.0205718
0.00356437
-0.000157586
1.48841e-06
-1.38675e-05
-1.99979e-05
-2.55888e-06
-0.000114673
0.00478408
0.0240477
0.00479049
-0.00010773
3.02701e-06
-1.6675e-05
-2.30675e-05
4.95161e-06
4.95898e-05
0.00696819
0.0295719
0.00697504
5.77418e-05
1.22966e-05
-1.78398e-05
-1.7964e-05
3.98183e-05
0.00046506
0.0104234
0.0373113
0.0104306
0.000474465
4.90425e-05
-1.08114e-05
1.25077e-05
0.000151217
0.00134539
0.0155394
0.0474745
0.0155468
0.00135603
0.000162423
2.17951e-05
0.000105741
0.000436504
0.00299863
0.0227688
0.0603094
0.0227763
0.00301042
0.000449643
0.000117035
0.000340779
0.00107308
0.00584862
0.0326166
0.0760954
0.0326241
0.00586146
0.00108814
0.000354195
0.000869974
0.00235289
0.0104442
0.0456153
0.0951207
0.0456227
0.0104579
0.00236973
0.000885333
0.00196159
0.00472599
0.0174597
0.0622917
0.117652
0.0622987
0.0174741
0.00474453
0.00197894
0.0040877
0.00882486
0.0276557
0.0831023
0.143875
0.0831089
0.0276706
0.00884487
0.00410682
0.00786323
0.0155041
0.0418293
0.108345
0.173822
0.108351
0.0418443
0.0155254
0.00788407
0.0147095
0.0256856
0.0605671
0.137972
0.207173
0.137978
0.0605821
0.0257078
0.0147318
0.0245935
0.0410605
0.0844393
0.17135
0.243162
0.171355
0.0844541
0.0410834
0.024617
0.0475889
0.0595553
0.111478
0.206795
0.279485
0.206798
0.111493
0.0595784
0.0476131
0.0692274
0.102404
0.144348
0.240926
0.313949
0.240929
0.144363
0.102427
0.0692508
-0.147436
0.0373019
0.168919
0.27312
0.34363
0.273123
0.168934
0.0373217
-0.147423
-0.205572
-0.0431607
0.171742
0.302127
0.362735
0.30213
0.171757
-0.043145
-0.205564
-0.210736
-0.0741577
0.176379
0.329476
0.3812
0.329479
0.176392
-0.0741441
-0.210729
-0.200946
-0.0750303
0.189809
0.356997
0.403208
0.357
0.189821
-0.0750177
-0.200939
-0.186289
-0.0616857
0.210215
0.385351
0.428363
0.385354
0.210226
-0.0616736
-0.186282
-0.169811
-0.0420617
0.234803
0.414441
0.455334
0.414443
0.234814
-0.04205
-0.169804
-0.15256
-0.0196476
0.261742
0.443964
0.483133
0.443965
0.261752
-0.0196364
-0.152552
-0.134937
0.00423206
0.289968
0.473598
0.511141
0.473599
0.289976
0.00424262
-0.134929
-0.117105
0.0291354
0.31905
0.503202
0.539126
0.503203
0.319057
0.0291453
-0.117097
-0.0991486
0.05516
0.349081
0.532885
0.567221
0.532885
0.349088
0.0551692
-0.099141
-0.0809971
0.0833283
0.380917
0.563183
0.596051
0.563183
0.380922
0.0833367
-0.0809899
-0.0627575
0.115291
0.416811
0.595732
0.627293
0.595732
0.416816
0.115298
-0.0627508
-0.0421436
0.160823
0.463725
0.633773
0.664307
0.633773
0.463729
0.16083
-0.0421374
-0.0216747
0.215466
0.534838
0.690333
0.717287
0.690332
0.534839
0.215471
-0.0216691
0.0243976
0.405777
0.757792
0.784499
0.801014
0.784498
0.757791
0.405779
0.0244022
0.054031
0.475704
0.475705
0.0540347
0.0535625
0.335366
0.459607
0.518174
0.498509
0.518174
0.459609
0.335368
0.0535665
0.185314
0.245961
0.387672
0.487437
0.452801
0.487438
0.387675
0.245964
0.185317
0.384249
0.472351
0.431076
0.472353
0.384253
0.392097
0.469742
0.4257
0.469744
0.3921
0.400416
0.472124
0.427024
0.472125
0.40042
0.407997
0.476212
0.430713
0.476214
0.408
0.415055
0.480807
0.435163
0.480808
0.415059
0.421824
0.485504
0.439816
0.485505
0.421828
0.428416
0.49017
0.444485
0.490171
0.42842
0.434893
0.494773
0.449122
0.494774
0.434896
0.44122
0.499268
0.453667
0.499269
0.441223
0.447652
0.50381
0.458307
0.503811
0.447655
0.453082
0.507684
0.462215
0.507685
0.453085
0.462714
0.514404
0.469209
0.514406
0.462717
7.19696e-05
0.000219707
0.000109181
0.0189666
0.07267
0.0189716
0.000114954
0.000223451
7.22844e-05
8.11127e-05
0.000241209
0.000331942
0.0205773
0.0757142
0.0205826
0.000338301
0.000246003
8.35713e-05
0.000120757
0.000312127
0.000899386
0.0240534
0.0818476
0.0240588
0.000906429
0.000318084
0.00012472
0.000207153
0.000476874
0.00200618
0.0295777
0.0909438
0.0295832
0.002014
0.000484175
0.000212705
0.000374448
0.000819954
0.00390863
0.037317
0.1028
0.0373225
0.00391721
0.000828629
0.000381428
0.000686775
0.00148322
0.00693018
0.0474802
0.117301
0.0474855
0.00693948
0.00149332
0.000695353
0.00125393
0.00268058
0.0114598
0.0603148
0.134431
0.0603199
0.0114697
0.00269206
0.00126395
0.00225544
0.00471933
0.017957
0.0761006
0.154261
0.0761053
0.0179674
0.00473216
0.00226705
0.00397118
0.00801804
0.0269447
0.0951256
0.176905
0.0951298
0.0269555
0.00803212
0.0039842
0.00679703
0.0131172
0.0389964
0.117656
0.202479
0.11766
0.0390075
0.0131324
0.00681154
0.0113688
0.0207052
0.0546839
0.143879
0.231039
0.143882
0.054695
0.0207214
0.0113846
0.0181389
0.0314686
0.0745344
0.173826
0.262519
0.173828
0.0745454
0.0314856
0.018156
0.0295397
0.0465077
0.0986384
0.207177
0.296619
0.207178
0.0986492
0.0465253
0.0295578
0.0401201
0.0650925
0.127305
0.243165
0.33264
0.243166
0.127316
0.0651104
0.040139
0.0883696
0.0932328
0.155139
0.279487
0.369335
0.279488
0.15515
0.0932513
0.0883898
-0.0437185
0.109649
0.194918
0.313952
0.40425
0.313953
0.194929
0.109668
-0.0437027
-0.269817
-0.0991439
0.169703
0.343633
0.436533
0.343634
0.169714
-0.0991311
-0.26981
-0.20893
-0.180604
0.109633
0.362738
0.46631
0.36274
0.109644
-0.180595
-0.208924
-0.188735
-0.190864
0.0859092
0.381203
0.493787
0.381205
0.0859191
-0.190856
-0.18873
-0.177552
-0.179773
0.0905952
0.403211
0.51969
0.403212
0.0906042
-0.179765
-0.177546
-0.1677
-0.161561
0.110217
0.428366
0.544701
0.428366
0.110225
-0.161553
-0.167694
-0.157718
-0.140616
0.136779
0.455337
0.569194
0.455337
0.136786
-0.140609
-0.157712
-0.147404
-0.118453
0.166459
0.483136
0.593302
0.483135
0.166466
-0.118445
-0.147398
-0.136815
-0.0954653
0.197644
0.511144
0.617025
0.511144
0.197649
-0.0954578
-0.136809
-0.126021
-0.0715883
0.229861
0.539129
0.640337
0.539128
0.229866
-0.0715811
-0.126015
-0.115063
-0.0464017
0.26355
0.567224
0.663252
0.567223
0.263554
-0.046395
-0.115057
-0.103853
-0.0184411
0.300387
0.596053
0.68591
0.596052
0.30039
-0.0184348
-0.103847
-0.0926345
0.0146679
0.344363
0.627295
0.708792
0.627294
0.344366
0.0146736
-0.0926292
-0.0790049
0.0649341
0.405664
0.664309
0.733146
0.664308
0.405666
0.064939
-0.079
-0.066964
0.129905
0.50462
0.717289
0.762596
0.717288
0.50462
0.129908
-0.0669598
-0.0253608
0.359366
0.770875
0.801015
0.820586
0.801014
0.770873
0.359368
-0.0253574
-0.00430214
0.440053
0.440053
-0.0042996
-0.0352479
0.278954
0.405855
0.498509
0.544344
0.498508
0.405855
0.278955
-0.0352452
-0.0129768
0.0429263
0.234534
0.4528
0.542965
0.452801
0.234536
0.0429287
-0.0129747
0.199561
0.431075
0.541469
0.431075
0.199563
0.19786
0.425699
0.54159
0.425699
0.197862
0.203848
0.427022
0.542877
0.427023
0.203851
0.211416
0.430712
0.544706
0.430713
0.211418
0.219239
0.435161
0.546735
0.435162
0.219242
0.22706
0.439814
0.548815
0.439816
0.227062
0.234833
0.444483
0.550892
0.444485
0.234836
0.242581
0.44912
0.552952
0.449123
0.242584
0.250217
0.453666
0.554976
0.453668
0.25022
0.258126
0.458305
0.557033
0.458309
0.258129
0.264687
0.462214
0.558822
0.462217
0.26469
0.276947
0.469208
0.561906
0.469212
0.276951
-1.25008e-05
2.03573e-06
-0.000167678
0.00305806
0.0189743
0.00306053
-0.000165298
3.4518e-06
-1.27463e-05
-1.38645e-05
1.86898e-06
-0.000155543
0.00357053
0.0205854
0.0035732
-0.000152795
3.8554e-06
-1.30753e-05
-1.715e-05
3.09654e-06
-0.000105641
0.00479702
0.0240616
0.00479992
-0.000102378
5.8121e-06
-1.56044e-05
-1.89112e-05
1.19607e-05
5.98416e-05
0.00698192
0.029586
0.00698506
6.37634e-05
1.56439e-05
-1.63299e-05
-1.24141e-05
4.82626e-05
0.000476541
0.0104378
0.0373252
0.0104411
0.000481186
5.30149e-05
-8.83916e-06
1.94175e-05
0.00016108
0.00135802
0.0155541
0.0474881
0.0155577
0.00136341
0.000167003
2.4233e-05
0.000113947
0.000447698
0.00301225
0.0227837
0.0603223
0.0227873
0.00301836
0.000454798
0.000119892
0.000350185
0.0010855
0.00586304
0.0326313
0.0761075
0.032635
0.00586982
0.00109378
0.000357443
0.000880485
0.00236636
0.0104591
0.0456296
0.0951317
0.0456331
0.0104665
0.00237579
0.000888903
0.00197307
0.00474035
0.017475
0.0623052
0.117662
0.0623085
0.0174828
0.00475087
0.00198279
0.00409998
0.00883982
0.027671
0.0831148
0.143884
0.0831179
0.0276792
0.00885133
0.00411082
0.00787604
0.0155193
0.041844
0.108356
0.17383
0.108359
0.0418524
0.0155317
0.00788811
0.0147226
0.0257007
0.0605811
0.137982
0.207179
0.137985
0.0605896
0.0257139
0.0147357
0.0246064
0.0410751
0.0844523
0.171359
0.243167
0.17136
0.0844607
0.0410889
0.0246205
0.0476005
0.0595687
0.11149
0.206802
0.279489
0.206803
0.111499
0.059583
0.0476159
0.0692363
0.102415
0.144359
0.240932
0.313953
0.240933
0.144367
0.10243
0.0692526
-0.147433
0.0373098
0.168928
0.273126
0.343634
0.273127
0.168937
0.0373237
-0.147422
-0.205571
-0.0431556
0.17175
0.302133
0.36274
0.302134
0.171759
-0.0431441
-0.205564
-0.210735
-0.0741538
0.176385
0.329482
0.381205
0.329483
0.176394
-0.0741436
-0.210729
-0.200945
-0.0750269
0.189815
0.357002
0.403213
0.357003
0.189823
-0.0750174
-0.200939
-0.186289
-0.0616825
0.21022
0.385356
0.428367
0.385356
0.210228
-0.0616735
-0.186282
-0.169811
-0.0420588
0.234808
0.414445
0.455337
0.414445
0.234814
-0.0420502
-0.169804
-0.152559
-0.0196452
0.261746
0.443967
0.483136
0.443967
0.261752
-0.0196371
-0.152553
-0.134936
0.00423366
0.28997
0.473601
0.511144
0.4736
0.289975
0.0042413
-0.13493
-0.117105
0.0291361
0.319052
0.503205
0.539129
0.503204
0.319056
0.0291432
-0.117099
-0.0991491
0.0551595
0.349082
0.532887
0.567224
0.532886
0.349085
0.0551661
-0.0991431
-0.0809984
0.0833264
0.380916
0.563184
0.596053
0.563184
0.380919
0.0833325
-0.0809927
-0.0627598
0.115287
0.416809
0.595733
0.627295
0.595733
0.416812
0.115293
-0.0627545
-0.0421471
0.160818
0.463723
0.633774
0.66431
0.633773
0.463724
0.160823
-0.0421421
-0.0216794
0.21546
0.534835
0.690334
0.717289
0.690333
0.534835
0.215463
-0.0216752
0.0243914
0.405771
0.757791
0.7845
0.801015
0.784499
0.75779
0.405772
0.0243948
0.0540235
0.475699
0.475699
0.0540263
0.0535525
0.335358
0.459601
0.51817
0.498508
0.51817
0.459601
0.33536
0.0535559
0.1853
0.245948
0.387662
0.487433
0.4528
0.487435
0.387665
0.245952
0.185304
0.38424
0.472347
0.431074
0.472348
0.384243
0.392086
0.469737
0.425698
0.469739
0.39209
0.400406
0.472119
0.427022
0.472121
0.40041
0.407986
0.476207
0.430712
0.476209
0.40799
0.415045
0.480802
0.435161
0.480804
0.415049
0.421814
0.485499
0.439814
0.485502
0.421818
0.428406
0.490165
0.444484
0.490168
0.428409
0.434882
0.494768
0.449121
0.494771
0.434886
0.441209
0.499263
0.453667
0.499266
0.441213
0.447641
0.503806
0.458308
0.503809
0.447645
0.453071
0.507679
0.462216
0.507683
0.453075
0.462703
0.5144
0.469211
0.514404
0.462707
1.4681e-06
-5.06437e-06
4.69109e-05
-0.000166266
0.000117172
-0.000165071
4.79249e-05
-4.50328e-06
1.32915e-06
9.69999e-07
-5.44101e-06
4.70212e-05
-0.000153888
0.000340614
-0.000152553
4.82673e-05
-4.54087e-06
1.15136e-06
3.9698e-07
-5.78723e-06
4.86802e-05
-0.000103627
0.000908866
-0.000102097
5.0275e-05
-4.43095e-06
9.63388e-07
-2.50965e-07
-4.15508e-06
5.34655e-05
6.23272e-05
0.00201657
6.4103e-05
5.55293e-05
-2.13798e-06
1.00316e-06
4.79722e-08
1.93067e-06
7.59774e-05
0.000479549
0.00391992
0.000481594
7.85884e-05
4.72502e-06
1.95219e-06
4.6788e-06
2.03749e-05
0.000159595
0.00136157
0.0069423
0.00136388
0.000162797
2.40323e-05
7.49434e-06
2.13929e-05
7.02569e-05
0.000395684
0.00301633
0.0114726
0.00301889
0.000399494
7.48265e-05
2.49951e-05
7.10314e-05
0.000199976
0.000957399
0.00586762
0.0179703
0.0058704
0.000961812
0.000205458
7.56465e-05
0.000200608
0.000512656
0.00213715
0.0104642
0.0269583
0.0104671
0.00214215
0.000519068
0.000206063
0.000519399
0.00121727
0.0043938
0.0174804
0.0390101
0.0174834
0.00439933
0.00122456
0.000525897
0.00124481
0.0026822
0.00837842
0.0276767
0.0546975
0.0276797
0.00838443
0.00269036
0.00125216
0.00283658
0.00553091
0.014946
0.0418501
0.0745476
0.041853
0.0149524
0.00553984
0.00284495
0.00583931
0.0105661
0.0250604
0.0605874
0.0986511
0.0605901
0.0250671
0.0105758
0.00584849
0.0123204
0.019308
0.039749
0.0844588
0.127317
0.0844611
0.0397558
0.0193183
0.0123306
0.0195191
0.0316311
0.0594559
0.111497
0.155151
0.111499
0.0594627
0.031642
0.0195301
0.0534268
0.0543169
0.0839883
0.144366
0.19493
0.144367
0.083995
0.0543283
0.0534393
0.0317441
0.0759024
0.112334
0.168936
0.169715
0.168938
0.112341
0.0759144
0.0317568
-0.0162477
0.0808389
0.139772
0.171758
0.109644
0.171759
0.139779
0.0808509
-0.0162361
-0.0359023
0.0861673
0.165306
0.176393
0.0859187
0.176394
0.165312
0.0861789
-0.0358917
-0.033861
0.09813
0.190565
0.189822
0.0906037
0.189823
0.190571
0.098141
-0.0338508
-0.0203575
0.115849
0.21668
0.210227
0.110225
0.210228
0.216686
0.11586
-0.0203477
-0.00124019
0.137427
0.244044
0.234814
0.136786
0.234815
0.24405
0.137437
-0.00123069
0.0207105
0.161518
0.272593
0.261751
0.166466
0.261753
0.272598
0.161528
0.0207196
0.0442034
0.187272
0.302105
0.289975
0.197649
0.289976
0.302109
0.187281
0.0442121
0.0685217
0.214153
0.332324
0.319056
0.229866
0.319057
0.332328
0.214161
0.0685299
0.093129
0.241747
0.363026
0.349086
0.263554
0.349087
0.36303
0.241754
0.0931367
0.11756
0.269971
0.394302
0.380921
0.300391
0.380921
0.394305
0.269978
0.117567
0.141222
0.298246
0.426071
0.416814
0.344367
0.416814
0.426073
0.298252
0.141228
0.164875
0.331507
0.463605
0.463727
0.405667
0.463727
0.463607
0.331512
0.164881
0.1877
0.356627
0.498011
0.534839
0.504622
0.534838
0.498012
0.356631
0.187705
0.2221
0.467754
0.71278
0.757793
0.770875
0.757792
0.712779
0.467756
0.222105
0.256165
0.505838
0.505839
0.25617
0.303612
0.450161
0.504172
0.459604
0.405855
0.459604
0.504173
0.450164
0.303617
0.47767
0.520456
0.534042
0.387667
0.234534
0.387668
0.534045
0.52046
0.477674
0.551329
0.384245
0.19956
0.384246
0.551332
0.562763
0.392092
0.197859
0.392093
0.562766
0.57144
0.400412
0.203848
0.400413
0.571443
0.578959
0.407992
0.211415
0.407993
0.578962
0.585941
0.415051
0.219239
0.415052
0.585944
0.592623
0.42182
0.22706
0.42182
0.592626
0.599088
0.428412
0.234833
0.428412
0.599091
0.605371
0.434888
0.242581
0.434889
0.605374
0.611455
0.441215
0.250217
0.441215
0.611457
0.617504
0.447647
0.258127
0.447648
0.617507
0.622709
0.453077
0.264688
0.453078
0.622711
0.631351
0.462709
0.276948
0.46271
0.631353
-6.57422e-07
-2.45692e-06
-4.99711e-06
2.97772e-06
0.000224756
3.57203e-06
-4.49453e-06
-2.11151e-06
-7.96853e-07
-8.98157e-07
-2.97589e-06
-5.14759e-06
3.32057e-06
0.000247359
3.97825e-06
-4.53499e-06
-2.37392e-06
-7.14689e-07
-2.16216e-06
-4.40752e-06
-5.27458e-06
5.17164e-06
0.000319546
5.96656e-06
-4.42389e-06
-3.5079e-06
-1.66865e-06
-3.88386e-06
-6.69064e-06
-3.32499e-06
1.48629e-05
0.00048578
1.58468e-05
-2.12977e-06
-5.2836e-06
-2.81075e-06
-5.67548e-06
-9.12389e-06
3.1097e-06
5.20659e-05
0.000830392
5.32761e-05
4.73467e-06
-7.13823e-06
-4.09576e-06
-6.20474e-06
-8.65261e-06
2.19713e-05
0.000165876
0.00149523
0.000167318
2.404e-05
-5.96543e-06
-3.83422e-06
-2.55022e-06
1.19068e-06
7.22698e-05
0.000453478
0.00269408
0.000455161
7.48303e-05
4.57156e-06
4.17326e-07
1.50079e-05
3.86372e-05
0.000202431
0.00109227
0.00473426
0.00109418
0.000205452
4.27699e-05
1.88611e-05
6.98257e-05
0.000144781
0.000515529
0.00237408
0.00803424
0.0023762
0.00051905
0.000149621
7.43045e-05
0.000220143
0.000414636
0.00122057
0.00474899
0.0131345
0.00475128
0.00122452
0.000420212
0.000225548
0.000593758
0.0010457
0.00268589
0.00884932
0.0207234
0.00885173
0.00269031
0.00105195
0.000599785
0.00147036
0.00241597
0.00553499
0.0155297
0.0314875
0.0155321
0.00553976
0.00242289
0.00147731
0.00329006
0.00513334
0.0105706
0.0257118
0.0465269
0.0257142
0.0105757
0.00514086
0.00329759
0.0069983
0.010133
0.0193129
0.041087
0.0651118
0.0410891
0.0193181
0.0101411
0.0070067
0.0129236
0.0184891
0.0316365
0.0595813
0.0932523
0.0595831
0.0316418
0.0184976
0.0129325
0.0237234
0.0307148
0.0543233
0.102429
0.109668
0.10243
0.0543281
0.0307235
0.023733
0.0427582
0.049964
0.07591
0.0373223
-0.099132
0.0373233
0.0759141
0.0499728
0.0427685
0.057657
0.0727484
0.080847
-0.0431458
-0.180597
-0.0431449
0.0808506
0.0727571
0.0576679
0.0714152
0.0953566
0.0861753
-0.0741455
-0.190858
-0.0741446
0.0861786
0.0953652
0.0714261
0.0877359
0.118007
0.0981375
-0.0750195
-0.179767
-0.0750184
0.0981408
0.118015
0.0877468
0.107394
0.1417
0.115856
-0.0616757
-0.161555
-0.0616743
0.11586
0.141708
0.107404
0.130119
0.167073
0.137434
-0.0420525
-0.140611
-0.0420509
0.137437
0.167081
0.13013
0.155485
0.194327
0.161524
-0.0196393
-0.118447
-0.0196375
0.161528
0.194334
0.155495
0.183075
0.223369
0.187278
0.00423922
-0.09546
0.0042412
0.187281
0.223376
0.183085
0.21245
0.253924
0.214159
0.0291414
-0.0715834
0.0291435
0.214162
0.253931
0.212459
0.243094
0.285585
0.241752
0.0551647
-0.0463974
0.0551667
0.241755
0.285591
0.243103
0.27438
0.3179
0.269977
0.0833316
-0.0184373
0.0833335
0.26998
0.317906
0.274387
0.305531
0.349982
0.298252
0.115292
0.0146711
0.115294
0.298254
0.349987
0.305538
0.335835
0.382146
0.331512
0.160824
0.0649367
0.160825
0.331514
0.38215
0.335842
0.364866
0.409105
0.356632
0.215465
0.129907
0.215466
0.356633
0.409109
0.364872
0.393689
0.444564
0.467758
0.405776
0.359368
0.405775
0.467758
0.444567
0.393694
0.426133
0.464897
0.505841
0.475703
0.440054
0.475702
0.505841
0.4649
0.426138
0.475656
0.486222
0.450166
0.335363
0.278954
0.335362
0.450166
0.486225
0.475661
0.596058
0.599797
0.520461
0.245954
0.0429242
0.245955
0.520463
0.5998
0.59606
-3.16437e-07
-9.39005e-07
1.22782e-06
-1.29244e-05
7.3027e-05
-1.2708e-05
1.33022e-06
-7.96815e-07
-3.24934e-07
-4.09436e-07
-9.29356e-07
1.04259e-06
-1.32699e-05
8.42971e-05
-1.30448e-05
1.15091e-06
-7.15005e-07
-2.02662e-07
-1.26203e-06
-2.12838e-06
7.01366e-07
-1.58608e-05
0.000125502
-1.55572e-05
9.62441e-07
-1.66953e-06
-6.54508e-07
-2.6339e-06
-3.75937e-06
4.39541e-07
-1.67104e-05
0.000213576
-1.62592e-05
9.98e-07
-2.81406e-06
-1.23065e-06
-4.23331e-06
-5.49977e-06
1.10718e-06
-9.34486e-06
0.000382399
-8.73879e-06
1.94238e-06
-4.10174e-06
-2.09257e-06
-5.21879e-06
-5.88075e-06
6.27238e-06
2.35682e-05
0.000696411
2.43553e-05
7.47347e-06
-3.84585e-06
-1.97173e-06
-3.52798e-06
-2.12867e-06
2.34607e-05
0.000119081
0.00126509
0.000120034
2.49624e-05
4.00095e-07
5.16403e-07
7.33053e-06
1.56302e-05
7.37042e-05
0.000356455
0.00226823
0.000357591
7.55942e-05
1.8835e-05
1.25281e-05
4.41134e-05
7.058e-05
0.000203794
0.000887759
0.00398539
0.000889052
0.000205991
7.427e-05
5.0026e-05
0.00014874
0.00022113
0.000523206
0.00198146
0.00681271
0.00198292
0.000525797
0.000225502
0.000155748
0.000418969
0.000594899
0.00124914
0.00410937
0.0113857
0.00411093
0.00125203
0.000599728
0.000426568
0.00106548
0.00147175
0.00284154
0.00788656
0.018157
0.00788819
0.00284479
0.00147724
0.00107407
0.00248505
0.00329163
0.00584483
0.0147341
0.0295587
0.0147357
0.0058483
0.00329751
0.00249407
0.00528211
0.00700017
0.0123267
0.024619
0.0401397
0.0246206
0.0123304
0.0070066
0.00529193
0.0103681
0.0129258
0.0195262
0.0476147
0.0883903
0.0476158
0.0195298
0.0129324
0.0103781
0.0177745
0.0237261
0.0534359
0.0692515
-0.0437033
0.0692524
0.0534391
0.0237329
0.017785
0.029345
0.0427619
0.0317539
-0.147424
-0.269811
-0.147423
0.0317563
0.0427683
0.0293554
0.0450892
0.0576617
-0.0162387
-0.205566
-0.208926
-0.205566
-0.0162368
0.0576677
0.0450998
0.0631136
0.0714202
-0.0358941
-0.210731
-0.188732
-0.210731
-0.0358924
0.0714259
0.0631239
0.0829138
0.0877411
-0.0338533
-0.200941
-0.177548
-0.200941
-0.0338515
0.0877466
0.082924
0.104796
0.107399