/*--------------------------------*- C++ -*----------------------------------*\
  =========                 |
  \\      /  F ield         | OpenFOAM: The Open Source CFD Toolbox
   \\    /   O peration     | Website:  https://openfoam.org
    \\  /    A nd           | Version:  6
     \\/     M anipulation  |
\*---------------------------------------------------------------------------*/
FoamFile
{
    version     2.0;
    format      ascii;
    class       volScalarField;
    location    "0.7";
    object      T;
}
// * * * * * * * * * * * * * * * * * * * * * * * * * * * * * * * * * * * * * //

dimensions      [0 0 0 1 0 0 0];

internalField   nonuniform List<scalar> 
3029
(
278.133
272.084
303.578
248.212
309.359
248.212
303.578
272.084
278.133
314.126
319.006
340.663
273.24
331.916
273.24
340.663
319.006
314.126
255.933
262.293
294.554
268.006
317.001
268.006
294.554
262.293
255.933
258.563
254.994
289.328
268.765
304.221
268.765
289.328
254.993
258.563
267.516
258.325
288.479
271.153
297.211
271.152
288.478
258.324
267.515
273.346
262.374
287.93
273.461
294.032
273.461
287.928
262.372
273.345
276.205
265.38
287.44
275.559
293.252
275.558
287.437
265.377
276.203
277.364
267.483
287.083
277.707
294.302
277.706
287.08
267.48
277.362
277.739
269.091
286.994
280.313
297.181
280.311
286.991
269.087
277.736
277.904
270.593
287.435
283.909
302.126
283.907
287.431
270.589
277.901
278.325
272.429
288.883
289.379
310.145
289.377
288.878
272.424
278.321
279.523
275.203
292.006
297.26
320.208
297.257
292.001
275.198
279.518
282.207
279.645
297.787
311.392
344.674
311.388
297.781
279.639
282.201
287.22
286.646
306.972
323.871
342.995
323.867
306.966
286.639
287.214
295.951
296.777
318.763
378.494
613.801
378.487
318.755
296.77
295.944
309.706
310.439
329.005
335.599
367.602
335.593
328.997
310.431
309.699
336.143
344.244
338.515
265.934
481.208
265.931
338.506
344.235
336.134
371.326
381.506
329.843
231.493
479.76
231.491
329.836
381.495
371.315
401.728
403.195
312.388
210.119
396.603
210.119
312.382
403.183
401.717
427.589
419.714
307.796
213.66
417.808
213.659
307.791
419.702
427.577
451.871
436.543
312.825
223.329
432.774
223.328
312.82
436.531
451.858
476.273
454.802
322.696
233.399
437.33
233.397
322.691
454.79
476.259
501.256
474.155
334.714
243.086
437.214
243.084
334.71
474.143
501.241
526.641
493.976
347.576
252.639
435.679
252.637
347.571
493.963
526.625
551.965
513.608
360.576
262.322
434.078
262.319
360.57
513.594
551.949
576.631
532.327
373.106
272.241
432.886
272.238
373.1
532.313
576.615
600.007
549.35
384.779
282.716
432.675
282.714
384.774
549.336
599.99
621.603
563.577
393.977
292.828
432.547
292.825
393.972
563.563
621.585
641.996
575.199
404.544
307.645
439.366
307.643
404.539
575.186
641.978
663.735
584.2
403.823
309.737
432.511
309.735
403.818
584.187
663.718
697.878
609.484
443.454
373.57
511.542
373.567
443.448
609.471
697.86
745.605
659.112
524.518
451.9
601.091
451.897
524.511
659.1
745.587
795.305
715.926
500.282
386.554
491.817
386.551
500.275
715.913
795.287
905.383
875.946
456.95
161.726
152.178
161.724
456.944
875.932
905.365
272.084
257.033
315.874
261.315
265.121
261.315
315.873
257.033
272.084
319.006
349.295
411.28
302.931
280.284
302.931
411.279
349.294
319.006
262.293
289.097
355.521
304.127
283.088
304.127
355.519
289.097
262.292
254.993
263.812
322.216
299.423
283.001
299.422
322.214
263.811
254.993
258.325
258.538
307.75
296.295
283.567
296.294
307.748
258.536
258.324
262.373
259.831
301.933
295.052
285.446
295.051
301.931
259.829
262.371
265.379
262.609
299.655
295.182
288.725
295.181
299.652
262.606
265.377
267.483
265.448
298.903
296.5
293.557
296.498
298.899
265.445
267.48
269.09
268.146
299.081
299.195
300.256
299.192
299.076
268.142
269.086
270.593
270.91
300.264
303.72
309.218
303.717
300.259
270.905
270.588
272.429
274.166
302.913
310.739
321.08
310.736
302.907
274.16
272.423
275.203
278.574
307.662
320.804
335.805
320.8
307.655
278.568
275.197
279.645
284.859
315.16
335.13
356.985
335.125
315.152
284.852
279.638
286.645
293.607
325.432
350.885
372.991
350.879
325.423
293.599
286.638
296.777
304.8
336.81
374.108
443.249
374.101
336.801
304.791
296.769
310.439
318.488
345.687
354.801
346.948
354.795
345.677
318.477
310.43
344.244
339.754
343.499
337.096
724.741
337.091
343.489
339.742
344.233
381.505
359.92
333.096
347.853
991.15
347.848
333.086
359.907
381.492
403.194
374.14
329.568
349.038
877.838
349.033
329.559
374.127
403.18
419.713
388.311
336.039
357.283
817.179
357.277
336.031
388.297
419.698
436.541
404.658
348.876
369.479
786.56
369.473
348.867
404.644
436.526
454.801
422.95
364.806
382.765
766.595
382.759
364.796
422.936
454.785
474.154
442.372
381.974
396.176
750.922
396.169
381.964
442.358
474.139
493.975
462.158
399.439
409.587
737.836
409.58
399.429
462.144
493.959
513.607
481.652
416.731
423.207
727.024
423.2
416.722
481.638
513.591
532.326
500.099
433.447
437.521
718.757
437.514
433.437
500.084
532.31
549.35
516.876
449.866
453.352
713.793
453.345
449.857
516.861
549.333
563.578
529.243
462.94
471.878
712.577
471.872
462.931
529.229
563.561
575.2
539.838
485.516
494.811
716.514
494.805
485.507
539.824
575.184
584.201
521.813
437.374
496.985
682.578
496.979
437.365
521.8
584.185
609.485
536.95
686.583
641.17
813.852
641.165
686.573
536.938
609.47
659.114
568.329
774.639
719.18
886.964
719.175
774.63
568.318
659.099
715.928
651.844
764.958
749.767
909.886
749.762
764.949
651.832
715.913
875.948
988.513
946.627
714.938
692.843
714.932
946.615
988.498
875.933
303.578
315.874
347.684
305.734
272.226
305.733
347.684
315.873
303.578
340.663
411.28
440.384
345.624
282.937
345.623
440.382
411.279
340.663
294.554
355.52
418.183
352.44
288.795
352.439
418.181
355.519
294.553
289.328
322.216
387.244
347.493
292.632
347.492
387.241
322.214
289.327
288.479
307.75
366.632
341.774
297.03
341.773
366.628
307.747
288.477
287.929
301.933
354.363
338.163
303.033
338.161
354.359
301.93
287.927
287.439
299.654
347.032
337.099
311.02
337.097
347.027
299.65
287.436
287.082
298.902
342.749
338.661
321.209
338.659
342.743
298.897
287.078
286.994
299.08
340.851
343.034
333.802
343.031
340.845
299.075
286.989
287.434
300.263
341.375
350.495
348.977
350.491
341.368
300.257
287.429
288.882
302.912
344.687
361.309
366.86
361.305
344.679
302.905
288.875
292.005
307.661
351.193
375.529
387.287
375.524
351.185
307.653
291.997
297.785
315.159
361.018
392.889
410.381
392.883
361.009
315.15
297.777
306.971
325.431
373.333
411.599
432.824
411.592
373.322
325.42
306.962
318.761
336.809
385.883
429.749
463.163
429.741
385.872
336.798
318.752
329.003
345.686
394.738
434.532
439.366
434.524
394.726
345.674
328.993
338.512
343.497
403.976
441.274
610.958
441.266
403.963
343.484
338.501
329.841
333.094
411.074
461.592
917.175
461.582
411.061
333.081
329.831
312.386
329.566
416.361
476.854
991.169
476.844
416.348
329.554
312.377
307.794
336.038
425.464
493.779
995.14
493.769
425.451
336.026
307.786
312.824
348.874
438.621
513.309
985.13
513.297
438.608
348.862
312.816
322.695
364.804
454.311
534.153
974.135
534.142
454.297
364.792
322.686
334.714
381.973
471.2
555.229
964.514
555.217
471.187
381.96
334.705
347.576
399.438
488.524
576.01
956.275
575.998
488.51
399.426
347.567
360.576
416.731
505.899
596.512
949.284
596.5
505.886
416.718
360.566
373.106
433.447
523.518
617.693
944.064
617.681
523.504
433.435
373.097
384.78
449.866
541.362
640.232
940.662
640.221
541.348
449.854
384.771
393.979
462.94
565.498
674.627
947.393
674.617
565.486
462.929
393.97
404.546
485.517
593.454
707.797
951.736
707.788
593.442
485.506
404.537
403.825
437.374
743.917
946.908
1139.62
946.899
743.901
437.364
403.818
443.457
686.584
1675.81
1130.61
1316.66
1130.6
1675.79
686.574
443.449
524.521
774.641
774.631
524.512
500.286
764.96
505.048
512.082
669.68
512.079
505.042
764.95
500.277
456.954
946.633
755.879
675.201
711.756
675.195
755.868
946.619
456.947
687.922
616.943
633.475
616.937
687.913
695.258
611.449
620.982
611.442
695.249
706.012
614.492
619.695
614.486
706.003
712.907
618.367
620.626
618.361
712.898
717.15
621.899
622.068
621.892
717.141
720.17
625.163
623.69
625.157
720.161
722.662
628.282
625.398
628.276
722.654
724.919
631.334
627.18
631.328
724.91
727.035
634.316
628.992
634.31
727.026
729.114
637.386
630.962
637.38
729.105
730.9
639.936
632.561
639.93
730.891
733.808
644.623
635.868
644.617
733.8
248.213
261.315
305.733
316.106
313.222
316.105
305.732
261.313
248.212
273.24
302.93
345.622
334.287
319.066
334.286
345.621
302.928
273.239
268.006
304.126
352.439
341.815
324.075
341.813
352.436
304.124
268.005
268.765
299.421
347.491
343.646
329.77
343.644
347.488
299.419
268.764
271.152
296.293
341.772
345.073
337.628
345.07
341.768
296.29
271.15
273.46
295.05
338.16
348.454
348.168
348.451
338.156
295.047
273.458
275.558
295.18
337.096
354.611
361.393
354.607
337.091
295.176
275.555
277.705
296.497
338.659
363.809
377.147
363.805
338.653
296.493
277.701
280.311
299.192
343.031
376.117
395.24
376.112
343.025
299.187
280.306
283.907
303.717
350.492
391.492
415.456
391.486
350.485
303.711
283.902
289.376
310.736
361.306
409.749
437.515
409.743
361.298
310.729
289.37
297.258
320.801
375.526
430.476
460.969
430.468
375.516
320.793
297.25
311.389
335.126
392.886
452.915
485.215
452.906
392.875
335.117
311.381
323.868
350.88
411.596
475.588
509.017
475.579
411.584
350.87
323.86
378.49
374.103
429.745
496.89
532.974
496.881
429.733
374.092
378.479
335.595
354.798
434.528
514.366
552.603
514.357
434.515
354.786
335.584
265.932
337.093
441.271
537.547
596.251
537.536
441.257
337.084
265.928
231.492
347.851
461.588
564.455
684.169
564.443
461.574
347.844
231.491
210.119
349.036
476.851
584.47
743.908
584.458
476.838
349.03
210.119
213.659
357.281
493.776
602.797
778.366
602.785
493.762
357.275
213.659
223.328
369.477
513.305
622.051
800.737
622.039
513.291
369.471
223.328
233.398
382.763
534.149
642.271
818.247
642.259
534.136
382.756
233.398
243.085
396.174
555.225
662.814
833.714
662.802
555.212
396.167
243.085
252.638
409.584
576.005
683.484
848.19
683.472
575.992
409.578
252.637
262.321
423.205
596.508
704.364
862.259
704.352
596.495
423.198
262.319
272.24
437.518
617.688
726.362
876.773
726.351
617.675
437.511
272.238
282.715
453.349
640.228
751.098
893.02
751.087
640.215
453.342
282.714
292.827
471.876
674.623
786.244
916.205
786.234
674.611
471.869
292.825
307.645
494.809
707.794
831.997
945.766
831.988
707.783
494.802
307.643
309.736
496.983
946.905
984.976
1034.6
984.968
946.893
496.976
309.734
373.57
641.169
1130.61
647.722
713.146
647.72
1130.6
641.163
373.567
451.9
719.18
719.174
451.897
386.556
749.768
512.082
409.721
519.954
409.718
512.078
749.762
386.553
161.728
714.943
675.204
644.587
697.096
644.58
675.196
714.936
161.726
616.946
618.112
668.919
618.105
616.939
611.452
599.502
644.959
599.495
611.445
614.495
593.739
634.243
593.732
614.488
618.37
593.707
630.498
593.7
618.363
621.902
595.643
629.602
595.636
621.895
625.167
598.2
629.786
598.193
625.16
628.285
600.92
630.366
600.914
628.279
631.337
603.672
631.103
603.666
631.33
634.319
606.381
631.897
606.375
634.313
637.39
609.162
632.78
609.156
637.383
639.939
611.473
633.515
611.467
639.932
644.626
615.695
635.03
615.689
644.62
309.359
265.12
272.224
313.219
364.285
313.216
272.223
265.119
309.359
331.916
280.283
282.935
319.063
367.087
319.06
282.933
280.282
331.915
317
283.087
288.792
324.072
370.317
324.068
288.79
283.085
316.998
304.22
282.999
292.63
329.767
375.532
329.763
292.627
282.997
304.217
297.209
283.565
297.027
337.625
383.702
337.621
297.023
283.562
297.206
294.03
285.443
303.028
348.164
394.916
348.16
303.024
285.44
294.026
293.25
288.722
311.015
361.389
408.858
361.385
311.011
288.718
293.246
294.299
293.554
321.205
377.143
425.133
377.137
321.2
293.55
294.295
297.177
300.252
333.798
395.235
443.383
395.229
333.792
300.247
297.173
302.122
309.214
348.972
415.452
463.287
415.446
348.965
309.208
302.117
310.141
321.075
366.854
437.511
484.509
437.504
366.847
321.069
310.136
320.204
335.8
387.282
460.965
506.628
460.957
387.273
335.793
320.197
344.67
356.979
410.375
485.211
529.136
485.203
410.365
356.971
344.662
342.99
372.985
432.818
509.013
551.523
509.004
432.808
372.977
342.982
613.792
443.243
463.156
532.969
574.454
532.96
463.145
443.232
613.777
367.596
346.942
439.36
552.599
601.923
552.589
439.348
346.931
367.586
481.208
724.737
610.951
596.246
645.536
596.234
610.937
724.731
481.208
479.761
991.148
917.168
684.163
695.215
684.151
917.155
991.146
479.761
396.604
877.838
991.163
743.903
731.715
743.891
991.15
877.836
396.604
417.808
817.179
995.135
778.36
758.26
778.348
995.122
817.176
417.809
432.774
786.56
985.126
800.732
780.239
800.72
985.113
786.557
432.775
437.33
766.596
974.131
818.242
800.429
818.231
974.12
766.593
437.331
437.215
750.923
964.511
833.71
819.79
833.699
964.499
750.92
437.215
435.681
737.837
956.273
848.186
838.591
848.176
956.261
737.834
435.68
434.08
727.026
949.283
862.255
857.142
862.245
949.271
727.022
434.079
432.888
718.76
944.063
876.769
876.25
876.759
944.051
718.755
432.888
432.677
713.797
940.662
893.018
897.378
893.008
940.649
713.792
432.676
432.55
712.582
947.394
916.203
924.689
916.195
947.383
712.578
432.549
439.369
716.519
951.738
945.765
958.172
945.756
951.728
716.514
439.368
432.515
682.584
1139.63
1034.6
1017.35
1034.59
1139.61
682.579
432.515
511.547
813.858
1316.66
713.146
791.936
713.144
1316.65
813.853
511.547
601.097
886.969
886.964
601.097
491.822
909.894
669.685
519.958
495.091
519.959
669.686
909.891
491.822
152.181
692.851
711.763
697.102
638.353
697.102
711.762
692.849
152.181
633.482
668.925
642.037
668.924
633.479
620.988
644.965
627.877
644.963
620.984
619.702
634.249
619.226
634.247
619.697
620.634
630.504
615.892
630.503
620.629
622.075
629.608
615.231
629.606
622.07
623.697
629.792
615.677
629.79
623.692
625.406
630.372
616.522
630.371
625.401
627.187
631.109
617.491
631.108
627.183
628.999
631.903
618.474
631.902
628.995
630.97
632.786
619.484
632.785
630.965
632.568
633.521
620.329
633.52
632.564
635.875
635.036
621.848
635.035
635.871
248.212
261.314
305.732
316.102
313.214
316.101
305.731
261.314
248.212
273.24
302.93
345.622
334.283
319.058
334.283
345.62
302.929
273.24
268.006
304.126
352.438
341.81
324.066
341.81
352.435
304.125
268.005
268.764
299.421
347.49
343.642
329.761
343.64
347.488
299.419
268.763
271.151
296.292
341.77
345.068
337.619
345.066
341.768
296.29
271.15
273.459
295.049
338.158
348.448
348.158
348.446
338.155
295.047
273.458
275.556
295.178
337.093
354.604
361.382
354.602
337.09
295.176
275.554
277.703
296.494
338.655
363.8
377.135
363.798
338.651
296.492
277.7
280.308
299.189
343.026
376.108
395.227
376.105
343.022
299.186
280.305
283.904
303.713
350.487
391.482
415.443
391.478
350.482
303.71
283.9
289.372
310.731
361.299
409.738
437.501
409.734
361.294
310.727
289.369
297.252
320.796
375.517
430.463
460.955
430.458
375.511
320.791
297.249
311.383
335.119
392.876
452.901
485.2
452.896
392.869
335.114
311.378
323.862
350.872
411.586
475.573
509.002
475.568
411.578
350.866
323.856
378.481
374.094
429.734
496.875
532.958
496.869
429.726
374.087
378.475
335.587
354.789
434.516
514.351
552.586
514.345
434.508
354.782
335.581
265.929
337.087
441.259
537.53
596.232
537.523
441.25
337.081
265.926
231.491
347.846
461.576
564.438
684.148
564.43
461.568
347.842
231.491
210.119
349.032
476.84
584.453
743.888
584.445
476.831
349.029
210.119
213.659
357.277
493.764
602.78
778.345
602.772
493.757
357.274
213.659
223.328
369.472
513.294
622.034
800.717
622.026
513.286
369.47
223.328
233.398
382.759
534.139
642.255
818.229
642.247
534.131
382.756
233.398
243.085
396.17
555.216
662.799
833.696
662.791
555.207
396.167
243.085
252.639
409.582
575.998
683.469
848.174
683.462
575.989
409.579
252.639
262.322
423.204
596.501
704.351
862.243
704.343
596.493
423.2
262.321
272.241
437.518
617.684
726.352
876.758
726.343
617.675
437.514
272.24
282.717
453.35
640.225
751.089
893.007
751.082
640.217
453.346
282.716
292.829
471.879
674.623
786.237
916.194
786.23
674.614
471.874
292.828
307.647
494.813
707.796
831.992
945.756
831.986
707.788
494.808
307.646
309.74
496.988
946.909
984.973
1034.59
984.968
946.901
496.984
309.739
373.574
641.174
1130.61
647.722
713.146
647.719
1130.6
641.17
373.573
451.905
719.186
719.182
451.903
386.558
749.773
512.086
409.725
519.962
409.724
512.085
749.77
386.557
161.726
714.943
675.204
644.59
697.107
644.588
675.201
714.937
161.725
616.945
618.114
668.929
618.113
616.941
611.451
599.504
644.968
599.502
611.446
614.495
593.741
634.252
593.74
614.49
618.37
593.709
630.507
593.708
618.365
621.901
595.645
629.611
595.644
621.896
625.166
598.202
629.795
598.201
625.162
628.285
600.922
630.375
600.922
628.281
631.337
603.674
631.112
603.674
631.332
634.319
606.384
631.907
606.383
634.315
637.39
609.165
632.789
609.164
637.386
639.939
611.475
633.524
611.475
639.935
644.626
615.698
635.039
615.697
644.623
303.578
315.873
347.683
305.73
272.221
305.73
347.682
315.872
303.578
340.663
411.279
440.38
345.619
282.932
345.62
440.38
411.278
340.663
294.553
355.518
418.179
352.435
288.789
352.435
418.178
355.518
294.553
289.327
322.213
387.239
347.487
292.626
347.487
387.238
322.213
289.326
288.476
307.746
366.626
341.767
297.022
341.767
366.625
307.745
288.476
287.926
301.929
354.356
338.154
303.023
338.155
354.355
301.927
287.925
287.435
299.649
347.023
337.089
311.01
337.089
347.022
299.647
287.434
287.078
298.895
342.74
338.651
321.198
338.65
342.738
298.894
287.076
286.988
299.073
340.842
343.022
333.79
343.022
340.84
299.071
286.986
287.427
300.255
341.364
350.482
348.963
350.481
341.361
300.253
287.426
288.874
302.903
344.674
361.294
366.845
361.293
344.671
302.9
288.872
291.997
307.651
351.18
375.512
387.27
375.51
351.176
307.648
291.994
297.776
315.147
361.004
392.871
410.362
392.868
361
315.144
297.773
306.961
325.418
373.317
411.58
432.805
411.578
373.313
325.414
306.958
318.751
336.796
385.867
429.729
463.143
429.725
385.861
336.792
318.747
328.992
345.672
394.72
434.51
439.346
434.507
394.715
345.668
328.988
338.501
343.483
403.957
441.253
610.935
441.249
403.952
343.478
338.497
329.832
333.081
411.056
461.571
917.153
461.567
411.051
333.076
329.827
312.379
329.554
416.344
476.836
991.149
476.83
416.338
329.549
312.375
307.787
336.026
425.447
493.761
995.121
493.756
425.441
336.021
307.784
312.817
348.862
438.604
513.291
985.113
513.285
438.598
348.857
312.813
322.688
364.793
454.293
534.136
974.119
534.13
454.287
364.787
322.683
334.707
381.961
471.183
555.213
964.499
555.205
471.177
381.956
334.702
347.568
399.427
488.508
575.994
956.261
575.987
488.501
399.421
347.564
360.568
416.719
505.884
596.498
949.271
596.49
505.878
416.714
360.563
373.098
433.436
523.503
617.68
944.052
617.673
523.497
433.43
373.094
384.772
449.856
541.348
640.221
940.651
640.214
541.343
449.85
384.768
393.971
462.931
565.488
674.618
947.385
674.611
565.481
462.925
393.967
404.538
485.509
593.445
707.791
951.731
707.785
593.439
485.504
404.534
403.818
437.368
743.91
946.904
1139.62
946.899
743.903
437.363
403.815
443.45
686.581
1675.81
1130.61
1316.65
1130.61
1675.8
686.576
443.446
524.513
774.639
774.635
524.508
500.277
764.957
505.047
512.086
669.689
512.085
505.044
764.952
500.274
456.947
946.625
755.875
675.205
711.766
675.202
755.871
946.619
456.944
687.919
616.945
633.483
616.942
687.916
695.256
611.45
620.988
611.448
695.252
706.009
614.494
619.701
614.492
706.006
712.905
618.369
620.633
618.367
712.901
717.148
621.9
622.074
621.898
717.144
720.168
625.165
623.697
625.163
720.165
722.661
628.284
625.405
628.282
722.658
724.918
631.336
627.187
631.334
724.915
727.034
634.318
628.999
634.317
727.031
729.113
637.389
630.97
637.387
729.11
730.899
639.938
632.568
639.937
730.896
733.808
644.626
635.875
644.624
733.805
272.084
257.032
315.873
261.313
265.118
261.314
315.872
257.032
272.084
319.006
349.293
411.278
302.928
280.281
302.929
411.278
349.293
319.006
262.292
289.096
355.518
304.124
283.084
304.124
355.518
289.096
262.292
254.992
263.811
322.213
299.419
282.997
299.419
322.212
263.81
254.992
258.323
258.535
307.746
296.29
283.562
296.29
307.745
258.535
258.322
262.37
259.827
301.928
295.046
285.439
295.046
301.927
259.827
262.369
265.376
262.603
299.648
295.175
288.717
295.175
299.647
262.602
265.374
267.479
265.442
298.895
296.491
293.549
296.491
298.894
265.441
267.478
269.086
268.14
299.072
299.185
300.246
299.185
299.071
268.139
269.084
270.587
270.903
300.255
303.709
309.207
303.709
300.253
270.901
270.585
272.422
274.158
302.903
310.727
321.068
310.727
302.9
274.156
272.42
275.195
278.565
307.65
320.791
335.792
320.79
307.648
278.563
275.193
279.637
284.849
315.146
335.115
356.97
335.113
315.144
284.846
279.634
286.636
293.596
325.417
350.868
372.976
350.866
325.414
293.593
286.633
296.767
304.788
336.795
374.089
443.231
374.087
336.792
304.785
296.764
310.428
318.474
345.671
354.784
346.93
354.782
345.668
318.471
310.424
344.23
339.739
343.482
337.083
724.73
337.081
343.479
339.735
344.226
381.49
359.904
333.079
347.844
991.145
347.842
333.076
359.9
381.485
403.179
374.123
329.552
349.031
877.837
349.028
329.549
374.119
403.174
419.697
388.293
336.024
357.276
817.178
357.273
336.021
388.289
419.692
436.525
404.641
348.86
369.472
786.559
369.469
348.858
404.636
436.52
454.785
422.933
364.79
382.758
766.595
382.755
364.788
422.928
454.779
474.138
442.355
381.959
396.169
750.922
396.166
381.956
442.35
474.132
493.959
462.141
399.425
409.581
737.836
409.577
399.421
462.136
493.953
513.591
481.636
416.718
423.202
727.024
423.198
416.715
481.63
513.585
532.31
500.083
433.435
437.516
718.758
437.512
433.431
500.078
532.304
549.334
516.86
449.855
453.347
713.795
453.344
449.851
516.855
549.329
563.562
529.229
462.93
471.875
712.582
471.872
462.927
529.224
563.557
575.186
539.825
485.508
494.81
716.519
494.807
485.505
539.82
575.18
584.187
521.801
437.367
496.985
682.583
496.982
437.364
521.797
584.183
609.472
536.941
686.581
641.171
813.856
641.169
686.578
536.937
609.468
659.103
568.321
774.64
719.183
886.968
719.181
774.636
568.318
659.098
715.917
651.837
764.957
749.771
909.895
749.77
764.953
651.832
715.912
875.94
988.507
946.627
714.944
692.853
714.94
946.624
988.504
875.937
278.133
272.084
303.578
248.212
309.358
248.212
303.578
272.084
278.133
314.126
319.006
340.663
273.239
331.914
273.239
340.663
319.006
314.126
255.933
262.292
294.553
268.004
316.998
268.005
294.553
262.292
255.932
258.562
254.992
289.327
268.763
304.217
268.763
289.327
254.992
258.561
267.515
258.323
288.476
271.15
297.205
271.15
288.476
258.322
267.514
273.344
262.37
287.926
273.457
294.025
273.457
287.926
262.369
273.343
276.202
265.375
287.435
275.554
293.245
275.554
287.435
265.374
276.2
277.361
267.479
287.077
277.7
294.294
277.7
287.077
267.478
277.359
277.735
269.085
286.987
280.305
297.172
280.305
286.986
269.084
277.733
277.899
270.586
287.427
283.9
302.116
283.9
287.426
270.585
277.897
278.319
272.422
288.873
289.369
310.135
289.369
288.872
272.42
278.316
279.516
275.195
291.996
297.249
320.196
297.249
291.995
275.193
279.514
282.2
279.636
297.775
311.379
344.662
311.378
297.774
279.634
282.197
287.212
286.636
306.96
323.857
342.982
323.856
306.958
286.633
287.209
295.942
296.767
318.749
378.477
613.776
378.474
318.747
296.764
295.939
309.697
310.427
328.99
335.583
367.586
335.581
328.988
310.424
309.693
336.131
344.23
338.499
265.927
481.208
265.926
338.497
344.226
336.128
371.312
381.49
329.83
231.491
479.761
231.491
329.828
381.486
371.308
401.713
403.178
312.377
210.119
396.604
210.119
312.375
403.174
401.709
427.574
419.696
307.785
213.66
417.808
213.659
307.784
419.692
427.569
451.854
436.524
312.815
223.329
432.775
223.328
312.814
436.52
451.849
476.256
454.783
322.685
233.399
437.331
233.398
322.684
454.78
476.25
501.239
474.137
334.704
243.086
437.216
243.084
334.703
474.133
501.232
526.623
493.957
347.566
252.639
435.681
252.638
347.565
493.954
526.617
551.948
513.589
360.566
262.321
434.08
262.32
360.565
513.586
551.941
576.614
532.309
373.096
272.24
432.889
272.239
373.095
532.305
576.607
599.989
549.334
384.77
282.716
432.678
282.715
384.77
549.33
599.983
621.586
563.562
393.97
292.828
432.55
292.827
393.969
563.558
621.58
641.98
575.185
404.538
307.646
439.37
307.646
404.537
575.182
641.974
663.72
584.187
403.818
309.739
432.517
309.738
403.817
584.184
663.715
697.864
609.473
443.45
373.573
511.55
373.571
443.448
609.47
697.858
745.592
659.103
524.514
451.903
601.1
451.902
524.512
659.1
745.587
795.293
715.917
500.279
386.557
491.825
386.557
500.276
715.913
795.288
905.375
875.944
456.95
161.727
152.182
161.726
456.947
875.941
905.376
)
;

boundaryField
{
    injectionXMinus
    {
        type            uniformFixedValue;
        uniformValue    uniform 400;
        value           uniform 400;
    }
    injectionXPlus
    {
        type            uniformFixedValue;
        uniformValue    uniform 400;
        value           uniform 400;
    }
    injectionYMinus
    {
        type            uniformFixedValue;
        uniformValue    uniform 400;
        value           uniform 400;
    }
    injectionYPlus
    {
        type            uniformFixedValue;
        uniformValue    uniform 400;
        value           uniform 400;
    }
    inletXMinus
    {
        type            uniformFixedValue;
        uniformValue    uniform 293.15;
        value           uniform 293.15;
    }
    inletXPlus
    {
        type            uniformFixedValue;
        uniformValue    uniform 293.15;
        value           uniform 293.15;
    }
    inletYMinus
    {
        type            uniformFixedValue;
        uniformValue    uniform 293.15;
        value           uniform 293.15;
    }
    inletYPlus
    {
        type            uniformFixedValue;
        uniformValue    uniform 293.15;
        value           uniform 293.15;
    }
    outlet
    {
        type            zeroGradient;
    }
    valve
    {
        type            zeroGradient;
    }
    walls
    {
        type            zeroGradient;
    }
}


// ************************************************************************* //
