/*--------------------------------*- C++ -*----------------------------------*\
  =========                 |
  \\      /  F ield         | OpenFOAM: The Open Source CFD Toolbox
   \\    /   O peration     | Website:  https://openfoam.org
    \\  /    A nd           | Version:  6
     \\/     M anipulation  |
\*---------------------------------------------------------------------------*/
FoamFile
{
    version     2.0;
    format      ascii;
    class       volVectorField;
    location    "0.7";
    object      U;
}
// * * * * * * * * * * * * * * * * * * * * * * * * * * * * * * * * * * * * * //

dimensions      [0 1 -1 0 0 0 0];

internalField   nonuniform List<vector> 
3029
(
(4.25743 4.25743 1.48514)
(4.1162 3.19623 1.20243)
(3.81995 3.11338 0.944252)
(0.521382 2.14665 0.681133)
(0.346049 -7.90167e-06 0.598086)
(0.521382 -2.14667 0.681132)
(3.81995 -3.11339 0.944252)
(4.1162 -3.19623 1.20243)
(4.25743 -4.25743 1.48514)
(3.97472 3.97473 5.02082)
(3.86105 2.65534 3.83791)
(3.62003 2.59208 3.03761)
(0.432503 1.80049 1.9522)
(0.288884 -8.30099e-06 1.68533)
(0.432503 -1.8005 1.9522)
(3.62003 -2.5921 3.03761)
(3.86105 -2.65535 3.83791)
(3.97472 -3.97473 5.02082)
(0.574523 0.574524 5.92231)
(0.515745 1.21302 4.69123)
(0.409124 1.22767 3.82692)
(0.238644 0.794364 2.68746)
(0.184675 -8.5952e-06 2.40019)
(0.238644 -0.79438 2.68746)
(0.409124 -1.22768 3.82692)
(0.515745 -1.21303 4.69123)
(0.574521 -0.574526 5.92231)
(0.243642 0.243643 4.28597)
(0.217901 0.559953 3.82092)
(0.175328 0.588314 3.33608)
(0.125331 0.373756 2.8777)
(0.106742 -8.84794e-06 2.72266)
(0.125331 -0.373773 2.8777)
(0.175328 -0.588327 3.33608)
(0.217901 -0.55996 3.82092)
(0.243641 -0.243645 4.28596)
(0.109475 0.109477 3.57972)
(0.0989544 0.263141 3.38719)
(0.0823498 0.284447 3.14558)
(0.0657021 0.180944 2.93752)
(0.0591785 -9.03024e-06 2.86057)
(0.0657021 -0.180961 2.93752)
(0.0823498 -0.284461 3.14557)
(0.0989543 -0.263149 3.38719)
(0.109474 -0.109478 3.57972)
(0.0511137 0.0511151 3.25852)
(0.0469412 0.125811 3.1735)
(0.0404961 0.138644 3.05634)
(0.0345058 0.0887519 2.95706)
(0.0321316 -9.13304e-06 2.91919)
(0.0345059 -0.0887691 2.95706)
(0.0404961 -0.138658 3.05634)
(0.046941 -0.125819 3.1735)
(0.0511128 -0.0511169 3.25852)
(0.0244547 0.0244561 3.10737)
(0.0228327 0.0609582 3.06808)
(0.0203497 0.0680021 3.01123)
(0.0181195 0.0437951 2.96277)
(0.0172359 -9.16367e-06 2.94403)
(0.0181195 -0.0438124 2.96277)
(0.0203498 -0.0680161 3.01123)
(0.0228326 -0.0609659 3.06808)
(0.0244539 -0.0244579 3.10737)
(0.0118235 0.0118248 3.0348)
(0.0112322 0.0296655 3.01594)
(0.0103306 0.0333263 2.98789)
(0.00953281 0.0215505 2.96372)
(0.00921762 -9.12169e-06 2.9543)
(0.00953284 -0.0215677 2.96372)
(0.0103306 -0.0333402 2.98789)
(0.0112321 -0.0296732 3.01594)
(0.0118227 -0.0118267 3.0348)
(0.00558862 0.00558976 2.99997)
(0.00546792 0.0140428 2.99034)
(0.00528651 0.0157882 2.97573)
(0.00512935 0.0102038 2.96293)
(0.00506849 -9.02362e-06 2.95788)
(0.00512939 -0.0102207 2.96293)
(0.00528658 -0.0158019 2.97573)
(0.00546791 -0.0140506 2.99034)
(0.00558796 -0.00559171 2.99997)
(0.00219711 0.00219812 2.98438)
(0.00242907 0.00542742 2.97853)
(0.0027913 0.00592005 2.96929)
(0.00312177 0.00370443 2.96081)
(0.00325829 -8.85847e-06 2.95732)
(0.0031218 -0.00372106 2.96081)
(0.00279134 -0.00593344 2.96929)
(0.00242902 -0.00543498 2.97853)
(0.00219646 -0.00220005 2.98438)
(-0.000262782 -0.000261917 2.9805)
(0.000526847 -0.0010479 2.97505)
(0.00176177 -0.00193106 2.96562)
(0.00290277 -0.00176315 2.95592)
(0.00338546 -8.64805e-06 2.95148)
(0.00290281 0.00174691 2.95592)
(0.00176185 0.00191793 2.96562)
(0.000526874 0.00104039 2.97505)
(-0.000263297 0.000259946 2.9805)
(-0.00325337 -0.00325265 2.98752)
(-0.00121562 -0.00945271 2.9792)
(0.00200961 -0.0132076 2.963)
(0.00510502 -0.01044 2.9438)
(0.00650581 -8.37058e-06 2.93349)
(0.00510505 0.0104243 2.9438)
(0.00200966 0.013195 2.96301)
(-0.00121565 0.00944549 2.9792)
(-0.00325388 0.00325074 2.98753)
(-0.00858972 -0.00858915 3.0112)
(-0.003602 -0.0255676 2.99534)
(0.00446649 -0.037326 2.96069)
(0.0127799 -0.0312761 2.91291)
(0.0170912 -8.053e-06 2.88118)
(0.01278 0.031261 2.91291)
(0.00446658 0.0373138 2.96069)
(-0.00360194 0.0255605 2.99534)
(-0.00859008 0.00858721 3.0112)
(-0.0191162 -0.0191158 3.0666)
(-0.00736317 -0.0599603 3.03641)
(0.0123577 -0.0956333 2.96117)
(0.0353396 -0.089954 2.83574)
(0.0505712 -7.66735e-06 2.72134)
(0.0353397 0.0899396 2.83574)
(0.0123578 0.0956217 2.96117)
(-0.00736318 0.0599537 3.03641)
(-0.0191166 0.019114 3.06661)
(-0.038785 -0.0387848 3.1824)
(-0.0126952 -0.131 3.13162)
(0.033745 -0.237994 2.98257)
(0.0997816 -0.271112 2.66054)
(0.16419 -7.2469e-06 2.18559)
(0.0997817 0.271098 2.66054)
(0.0337451 0.237983 2.98257)
(-0.0126951 0.130994 3.13162)
(-0.0387853 0.0387829 3.1824)
(-0.0698999 -0.0698998 3.39976)
(-0.0179932 -0.259792 3.33572)
(0.0830931 -0.566708 3.10621)
(0.275984 -0.886935 2.39762)
(0.600481 -6.75606e-06 0.150023)
(0.275984 0.886922 2.39762)
(0.0830932 0.566698 3.10621)
(-0.0179932 0.259786 3.33572)
(-0.0699001 0.0698981 3.39977)
(-0.10283 -0.102831 3.74522)
(-0.019652 -0.424554 3.71224)
(0.162342 -1.17609 3.58034)
(0.670781 -3.2273 3.10272)
(12.5436 -6.23222e-06 1.23988)
(0.670781 3.22729 3.10272)
(0.162342 1.17608 3.58034)
(-0.0196519 0.424548 3.71224)
(-0.10283 0.102829 3.74522)
(-0.102879 -0.102879 4.15663)
(-0.0197007 -0.424676 4.1894)
(0.162292 -1.17623 4.32097)
(0.67073 -3.22739 4.7983)
(12.5435 -5.63634e-06 6.66103)
(0.67073 3.22738 4.7983)
(0.162292 1.17622 4.32098)
(-0.0197007 0.424671 4.1894)
(-0.102879 0.102877 4.15664)
(-0.0700662 -0.0700666 4.50252)
(-0.0181621 -0.260213 4.56625)
(0.08292 -0.567187 4.79528)
(0.275807 -0.887246 5.50345)
(0.600302 -5.01228e-06 7.75089)
(0.275807 0.887236 5.50345)
(0.0829201 0.567179 4.79529)
(-0.018162 0.260209 4.56626)
(-0.0700661 0.0700651 4.50252)
(-0.0391446 -0.0391452 4.72094)
(-0.0130619 -0.131911 4.77118)
(0.033367 -0.239029 4.91938)
(0.0993936 -0.271785 5.24068)
(0.163798 -4.31797e-06 5.71534)
(0.0993936 0.271777 5.24068)
(0.033367 0.239022 4.91939)
(-0.0130618 0.131907 4.77118)
(-0.0391445 0.0391439 4.72094)
(-0.0198301 -0.0198309 4.83889)
(-0.00809582 -0.0617688 4.86806)
(0.011596 -0.0976868 4.94173)
(0.0345523 -0.0912919 5.06578)
(0.0497738 -3.60197e-06 5.17964)
(0.0345524 0.0912852 5.06578)
(0.0115961 0.0976814 4.94173)
(-0.00809565 0.0617653 4.86806)
(-0.0198299 0.0198297 4.83889)
(-0.00997362 -0.00997458 4.8985)
(-0.00503403 -0.029072 4.91242)
(0.00296013 -0.0413056 4.9441)
(0.0112084 -0.0338694 4.98927)
(0.015494 -2.82345e-06 5.01998)
(0.0112084 0.0338642 4.98927)
(0.00296019 0.0413015 4.9441)
(-0.00503393 0.0290692 4.91242)
(-0.00997336 0.00997359 4.8985)
(-0.00590775 -0.00590891 4.93026)
(-0.00399333 -0.0161719 4.93493)
(-0.000957504 -0.0208366 4.94552)
(0.0019722 -0.0154107 4.95981)
(0.00330788 -2.03738e-06 4.96819)
(0.00197225 0.0154069 4.95981)
(-0.000957385 0.0208336 4.94552)
(-0.00399312 0.0161697 4.93493)
(-0.0059073 0.005908 4.93027)
(-0.00531011 -0.00531147 4.9527)
(-0.00483521 -0.0138191 4.95131)
(-0.00408335 -0.0164234 4.95028)
(-0.00336315 -0.0111997 4.95084)
(-0.00304519 -1.20198e-06 4.95169)
(-0.00336311 0.0111976 4.95084)
(-0.00408328 0.0164218 4.95028)
(-0.00483506 0.0138178 4.95131)
(-0.00530967 0.00531081 4.95271)
(-0.00730113 -0.00730268 4.97793)
(-0.00787068 -0.0185953 4.97121)
(-0.00874102 -0.0213105 4.96124)
(-0.00947679 -0.0140015 4.95301)
(-0.00975495 -3.7007e-07 4.94996)
(-0.00947674 0.0140008 4.95302)
(-0.0087409 0.02131 4.96125)
(-0.00787044 0.0185945 4.97121)
(-0.00730051 0.00730211 4.97794)
(-0.0120335 -0.0120352 5.01661)
(-0.0141858 -0.0305073 5.0037)
(-0.0175152 -0.0346156 4.9839)
(-0.0203613 -0.0224811 4.96702)
(-0.0214561 5.04827e-07 4.96054)
(-0.0203612 0.0224822 4.96702)
(-0.0175152 0.0346165 4.98391)
(-0.0141856 0.0305074 5.0037)
(-0.0120329 0.0120349 5.01661)
(-0.0202096 -0.0202115 5.0811)
(-0.0258964 -0.0512994 5.0611)
(-0.0348395 -0.0579882 5.02975)
(-0.042347 -0.0373669 5.0035)
(-0.045192 1.37375e-06 4.99358)
(-0.0423469 0.0373696 5.0035)
(-0.0348394 0.0579904 5.02975)
(-0.0258961 0.0513 5.06111)
(-0.0202088 0.0202112 5.0811)
(-0.0320313 -0.0320333 5.18559)
(-0.0461144 -0.0818582 5.16179)
(-0.0690784 -0.0922207 5.12206)
(-0.0876603 -0.0586472 5.09094)
(-0.0945067 2.2769e-06 5.07985)
(-0.0876602 0.0586516 5.09094)
(-0.0690783 0.0922243 5.12206)
(-0.0461142 0.0818596 5.1618)
(-0.0320305 0.0320333 5.1856)
(-0.0440086 -0.0440107 5.33768)
(-0.0768942 -0.11483 5.32941)
(-0.13475 -0.128844 5.30568)
(-0.178464 -0.0795752 5.29445)
(-0.193849 3.14355e-06 5.29261)
(-0.178464 0.0795811 5.29446)
(-0.13475 0.128849 5.30568)
(-0.0768938 0.114832 5.32942)
(-0.0440075 0.0440105 5.33769)
(-0.0402987 -0.0403008 5.50631)
(-0.107819 -0.113862 5.57421)
(-0.246489 -0.127181 5.6542)
(-0.338794 -0.0717137 5.73973)
(-0.369062 3.93825e-06 5.77624)
(-0.338794 0.0717211 5.73973)
(-0.246489 0.127187 5.6542)
(-0.107819 0.113864 5.57422)
(-0.0402974 0.0403006 5.50631)
(0.023896 0.0238937 5.53913)
(-0.0710031 0.0330578 5.80104)
(-0.342278 0.0366693 6.2047)
(-0.483839 0.0424702 6.53939)
(-0.525567 4.59635e-06 6.66462)
(-0.483839 -0.0424616 6.53939)
(-0.342277 -0.0366628 6.2047)
(-0.0710023 -0.0330558 5.80105)
(0.0238976 -0.0238943 5.53913)
(0.221619 0.221617 5.04811)
(0.262291 0.551709 5.51603)
(0.282695 0.611165 6.29498)
(0.32718 0.388209 6.88254)
(0.343408 4.95545e-06 7.09099)
(0.32718 -0.3882 6.88254)
(0.282695 -0.611157 6.29498)
(0.262292 -0.551707 5.51603)
(0.22162 -0.221617 5.04811)
(0.491816 0.491814 3.62126)
(0.789941 1.27993 4.05906)
(1.44898 1.40318 4.78539)
(1.82082 0.838483 5.30016)
(1.93165 4.9197e-06 5.47704)
(1.82082 -0.838474 5.30016)
(1.44898 -1.40317 4.78539)
(0.789941 -1.27992 4.05906)
(0.491818 -0.491815 3.62126)
(0.659414 0.659412 1.31882)
(1.08941 1.71584 1.48642)
(2.01534 1.85227 1.75474)
(2.44733 1.07986 1.9355)
(2.56415 4.60425e-06 1.99611)
(2.44733 -1.07985 1.9355)
(2.01533 -1.85226 1.75473)
(1.08941 -1.71584 1.48642)
(0.659416 -0.659411 1.31882)
(3.19622 4.1162 1.20243)
(2.75874 2.75875 0.947284)
(2.1621 2.01857 0.744331)
(1.02979 1.17275 0.592254)
(0.744643 -8.0143e-06 0.540921)
(1.02979 -1.17277 0.592253)
(2.1621 -2.01858 0.74433)
(2.75874 -2.75876 0.947283)
(3.19622 -4.1162 1.20243)
(2.65534 3.86105 3.83791)
(2.30064 2.30065 2.73746)
(1.81758 1.66354 2.12679)
(0.858582 0.96934 1.66946)
(0.626455 -8.34578e-06 1.52395)
(0.858582 -0.969356 1.66946)
(1.81758 -1.66355 2.12679)
(2.30064 -2.30066 2.73746)
(2.65534 -3.86105 3.83791)
(1.21302 0.515747 4.69123)
(1.04762 1.04762 3.54808)
(0.814116 0.950569 2.88222)
(0.518872 0.569915 2.38029)
(0.419808 -8.61516e-06 2.21805)
(0.518872 -0.569931 2.38029)
(0.814117 -0.950582 2.88222)
(1.04762 -1.04763 3.54808)
(1.21302 -0.515749 4.69123)
(0.559948 0.217902 3.82092)
(0.491634 0.491639 3.40413)
(0.392587 0.495744 3.00931)
(0.290901 0.305171 2.70475)
(0.252677 -8.85253e-06 2.59717)
(0.290902 -0.305187 2.70475)
(0.392587 -0.495758 3.00931)
(0.491635 -0.491647 3.40413)
(0.559948 -0.217905 3.82092)
(0.263137 0.0989559 3.38719)
(0.236011 0.236016 3.21623)
(0.195966 0.251195 3.01074)
(0.158547 0.157772 2.84669)
(0.14397 -9.01779e-06 2.78596)
(0.158547 -0.157789 2.84669)
(0.195967 -0.251209 3.01074)
(0.236012 -0.236024 3.21623)
(0.263137 -0.0989585 3.38719)
(0.125807 0.0469426 3.1735)
(0.115189 0.115193 3.09738)
(0.0993243 0.126208 2.99434)
(0.0850897 0.0803874 2.90948)
(0.0794932 -9.11384e-06 2.87725)
(0.0850902 -0.0804045 2.90948)
(0.0993252 -0.126222 2.99434)
(0.11519 -0.115202 3.09738)
(0.125807 -0.0469452 3.1735)
(0.0609542 0.0228341 3.06808)
(0.0568491 0.0568532 3.03237)
(0.050667 0.0632889 2.98106)
(0.0452104 0.0406814 2.93779)
(0.0430616 -9.13261e-06 2.92111)
(0.0452109 -0.0406985 2.93779)
(0.050668 -0.063303 2.98106)
(0.0568503 -0.0568618 3.03237)
(0.0609546 -0.0228367 3.06808)
(0.0296619 0.0112335 3.01594)
(0.0281688 0.0281725 2.99857)
(0.0259108 0.0316269 2.97282)
(0.0239309 0.0204376 2.95073)
(0.0231518 -9.09188e-06 2.94213)
(0.0239314 -0.0204547 2.95073)
(0.0259118 -0.0316409 2.97282)
(0.0281699 -0.0281811 2.99857)
(0.0296622 -0.0112361 3.01594)
(0.0140396 0.00546906 2.99034)
(0.0137374 0.0137407 2.98154)
(0.0132846 0.0154496 2.96819)
(0.0128943 0.00998574 2.95652)
(0.0127433 -8.98324e-06 2.95192)
(0.0128948 -0.0100026 2.95652)
(0.0132856 -0.0154634 2.96819)
(0.0137386 -0.0137492 2.98154)
(0.0140401 -0.00547166 2.99034)
(0.00542455 0.00243008 2.97853)
(0.00601867 0.0060216 2.97359)
(0.00693843 0.00661274 2.96577)
(0.00776925 0.00417143 2.95858)
(0.00810934 -8.82416e-06 2.95564)
(0.00776977 -0.00418801 2.95859)
(0.00693936 -0.00662623 2.96577)
(0.00601975 -0.00602987 2.97359)
(0.005425 -0.00243261 2.97853)
(-0.00105036 0.000527712 2.97505)
(0.000974128 0.000976649 2.97141)
(0.00410034 0.000444858 2.96484)
(0.00694404 -0.000139457 2.95791)
(0.0081274 -8.60338e-06 2.95473)
(0.00694455 0.000123302 2.95791)
(0.00410129 -0.000458007 2.96484)
(0.000975296 -0.000984759 2.97141)
(-0.00104973 -0.000530225 2.97505)
(-0.00945474 -0.0012149 2.9792)
(-0.00419182 -0.00418973 2.97507)
(0.00394836 -0.00688697 2.96571)
(0.0115359 -0.00594381 2.95368)
(0.014853 -8.33529e-06 2.9472)
(0.0115364 0.00592816 2.95368)
(0.00394925 0.00687428 2.96571)
(-0.00419077 0.00418195 2.97507)
(-0.0094542 0.0012125 2.9792)
(-0.0255692 -0.00360143 2.99534)
(-0.012513 -0.0125114 2.98919)
(0.00771903 -0.0209441 2.97104)
(0.0274562 -0.0186513 2.94315)
(0.037001 -8.00646e-06 2.92524)
(0.0274567 0.0186363 2.94315)
(0.00771992 0.0209319 2.97104)
(-0.0125119 0.0125038 2.98919)
(-0.0255685 0.00359907 2.99534)
(-0.0599615 -0.00736276 3.03641)
(-0.0284876 -0.0284864 3.02732)
(0.0203152 -0.0529305 2.99045)
(0.0718862 -0.0517406 2.92274)
(0.102037 -7.63273e-06 2.86844)
(0.0718866 0.0517263 2.92274)
(0.020316 0.0529189 2.99045)
(-0.0284866 0.0284793 3.02732)
(-0.0599609 0.00736055 3.03641)
(-0.131001 -0.0126949 3.13162)
(-0.0584707 -0.05847 3.12099)
(0.0536771 -0.125518 3.0533)
(0.189212 -0.140667 2.90118)
(0.298715 -7.20078e-06 2.7355)
(0.189212 0.140653 2.90119)
(0.0536779 0.125507 3.05331)
(-0.0584697 0.0584632 3.12099)
(-0.131 0.0126928 3.13162)
(-0.259792 -0.0179931 3.33572)
(-0.106799 -0.106799 3.32876)
(0.127574 -0.272731 3.23481)
(0.477752 -0.369547 2.96862)
(0.943637 -6.7235e-06 2.5294)
(0.477752 0.369534 2.96862)
(0.127574 0.272721 3.23481)
(-0.106798 0.106793 3.32876)
(-0.259792 0.0179912 3.33572)
(-0.424553 -0.019652 3.71224)
(-0.159381 -0.159382 3.71053)
(0.239877 -0.485656 3.65953)
(1.04284 -0.846071 3.49747)
(3.31942 -6.18646e-06 3.18292)
(1.04284 0.84606 3.49747)
(0.239877 0.485647 3.65954)
(-0.15938 0.159376 3.71054)
(-0.424553 0.0196502 3.71224)
(-0.424675 -0.019701 4.1894)
(-0.159505 -0.159505 4.19089)
(0.239751 -0.485797 4.24155)
(1.04271 -0.846163 4.40333)
(3.31929 -5.6045e-06 4.71776)
(1.04271 0.846152 4.40333)
(0.239751 0.485788 4.24155)
(-0.159504 0.1595 4.19089)
(-0.424674 0.0196993 4.1894)
(-0.260212 -0.0181625 4.56625)
(-0.107226 -0.107227 4.57289)
(0.127136 -0.273217 4.66636)
(0.477305 -0.369864 4.93212)
(0.943186 -4.9663e-06 5.37117)
(0.477305 0.369854 4.93212)
(0.127137 0.27321 4.66636)
(-0.107225 0.107223 4.5729)
(-0.260211 0.018161 4.56626)
(-0.131909 -0.0130625 4.77118)
(-0.0593978 -0.0593996 4.78124)
(0.0527213 -0.126573 4.84806)
(0.188231 -0.141354 4.99942)
(0.297723 -4.28545e-06 5.16481)
(0.188231 0.141346 4.99942)
(0.0527217 0.126567 4.84806)
(-0.0593972 0.0593957 4.78125)
(-0.131909 0.0130612 4.77118)
(-0.0617665 -0.0080966 4.86806)
(-0.0303403 -0.0303427 4.87609)
(0.0183887 -0.0550387 4.91132)
(0.0698948 -0.0531142 4.9776)
(0.10002 -3.55286e-06 5.03134)
(0.069895 0.0531075 4.9776)
(0.0183892 0.0550334 4.91132)
(-0.0303397 0.0303393 4.87609)
(-0.0617656 0.00809547 4.86806)
(-0.0290691 -0.005035 4.91242)
(-0.0161353 -0.0161382 4.91652)
(0.00390858 -0.0250632 4.93154)
(0.0234807 -0.0213355 4.95669)
(0.0329605 -2.78655e-06 4.97351)
(0.0234809 0.0213303 4.95669)
(0.00390893 0.0250591 4.93154)
(-0.0161348 0.0161357 4.91653)
(-0.0290684 0.00503416 4.91242)
(-0.0161684 -0.0039945 4.93493)
(-0.0112181 -0.0112216 4.93513)
(-0.00355747 -0.014871 4.93847)
(0.00361055 -0.0111453 4.94524)
(0.00676266 -1.98393e-06 4.94965)
(0.00361071 0.0111416 4.94524)
(-0.00355714 0.0148682 4.93848)
(-0.0112176 0.0112198 4.93513)
(-0.0161676 0.00399382 4.93493)
(-0.0138151 -0.00483657 4.95131)
(-0.0125883 -0.0125924 4.94743)
(-0.0106857 -0.0149514 4.9425)
(-0.00890796 -0.0101616 4.93939)
(-0.00814203 -1.16122e-06 4.93863)
(-0.00890785 0.0101595 4.93939)
(-0.0106855 0.0149499 4.9425)
(-0.012588 0.0125914 4.94744)
(-0.0138144 0.0048362 4.95131)
(-0.0185907 -0.00787224 4.97121)
(-0.0200305 -0.0200352 4.96186)
(-0.02224 -0.0229166 4.94781)
(-0.024116 -0.0150154 4.93602)
(-0.0248287 -3.1417e-07 4.93155)
(-0.0241159 0.0150149 4.93602)
(-0.0222398 0.0229163 4.94781)
(-0.0200302 0.0200349 4.96186)
(-0.0185899 0.00787204 4.97121)
(-0.0305022 -0.0141875 5.0037)
(-0.0359838 -0.035989 4.98567)
(-0.0444777 -0.040791 4.9578)
(-0.0517324 -0.0264219 4.93415)
(-0.0545216 5.47435e-07 4.9251)
(-0.0517324 0.026423 4.93415)
(-0.0444776 0.0407921 4.95781)
(-0.0359837 0.0359897 4.98568)
(-0.0305015 0.0141876 5.0037)
(-0.0512938 -0.0258983 5.0611)
(-0.0659236 -0.0659293 5.02917)
(-0.0890382 -0.0744389 4.97819)
(-0.108374 -0.0477194 4.9362)
(-0.115686 1.43232e-06 4.92053)
(-0.108374 0.0477221 4.9362)
(-0.0890382 0.0744413 4.97819)
(-0.0659235 0.0659306 5.02918)
(-0.051293 0.0258985 5.06111)
(-0.0818523 -0.0461165 5.16179)
(-0.118899 -0.118905 5.11079)
(-0.180183 -0.133767 5.02215)
(-0.229224 -0.0840755 4.95482)
(-0.247184 2.33917e-06 4.9312)
(-0.229224 0.08408 4.95482)
(-0.180183 0.13377 5.02215)
(-0.118899 0.118907 5.1108)
(-0.0818516 0.0461169 5.1618)
(-0.114824 -0.0768963 5.32941)
(-0.205565 -0.205571 5.26771)
(-0.372322 -0.230413 5.12827)
(-0.49419 -0.138674 5.04332)
(-0.536446 3.25332e-06 5.01806)
(-0.49419 0.138681 5.04332)
(-0.372322 0.230418 5.12827)
(-0.205565 0.205574 5.26771)
(-0.114823 0.0768968 5.32942)
(-0.113856 -0.107821 5.57421)
(-0.320046 -0.320053 5.5801)
(-0.801782 -0.358156 5.44667)
(-1.0937 -0.194287 5.43435)
(-1.18643 4.10395e-06 5.44452)
(-1.0937 0.194294 5.43435)
(-0.801782 0.358162 5.44667)
(-0.320046 0.320056 5.58011)
(-0.113854 0.107822 5.57422)
(0.0330643 -0.0710053 5.80104)
(-0.333109 -0.333116 6.17115)
(-1.8773 -0.376166 6.73388)
(-2.50741 -0.14082 7.20536)
(-2.68564 4.78945e-06 7.37709)
(-2.50741 0.140829 7.20536)
(-1.8773 0.376173 6.73388)
(-0.333108 0.333119 6.17116)
(0.0330663 0.0710057 5.80105)
(0.551715 0.262289 5.51603)
(0.612792 0.612784 6.37698)
(0.282695 0.676053 8.08623)
(0.32718 0.448922 9.1872)
(0.343408 5.05867e-06 9.54821)
(0.32718 -0.448913 9.1872)
(0.282695 -0.676045 8.08623)
(0.612794 -0.612781 6.37698)
(0.551717 -0.262289 5.51603)
(1.27993 0.789938 4.05906)
(2.23709 2.23709 4.88617)
(5.23405 2.43406 6.51803)
(6.59057 1.32116 7.42031)
(6.97239 4.68653e-06 7.69779)
(6.59057 -1.32115 7.42031)
(5.23405 -2.43405 6.51803)
(2.23709 -2.23708 4.88617)
(1.27993 -0.789938 4.05906)
(1.71585 1.08941 1.48642)
(3.07177 3.07176 1.78589)
(7.1063 3.21019 2.32109)
(8.28368 1.62868 2.56202)
(8.5586 3.76415e-06 2.62861)
(8.28368 -1.62867 2.56202)
(7.10629 -3.21018 2.32109)
(3.07177 -3.07176 1.78588)
(1.71585 -1.08941 1.48642)
(3.11338 3.81995 0.944252)
(2.01856 2.1621 0.744331)
(1.38442 1.38442 0.599737)
(0.86222 0.7292 0.509929)
(0.691141 -7.71336e-06 0.479897)
(0.862221 -0.729215 0.509929)
(1.38442 -1.38443 0.599736)
(2.01856 -2.16211 0.74433)
(3.11338 -3.81995 0.944251)
(2.59208 3.62003 3.03761)
(1.66353 1.81758 2.12679)
(1.15001 1.15002 1.68964)
(0.726295 0.609361 1.44129)
(0.58823 -7.98227e-06 1.36049)
(0.726296 -0.609376 1.44129)
(1.15002 -1.15003 1.68963)
(1.66353 -1.81759 2.12679)
(2.59208 -3.62003 3.03761)
(1.22766 0.409125 3.82692)
(0.950562 0.814121 2.88222)
(0.698915 0.698922 2.40193)
(0.491177 0.400056 2.11978)
(0.4173 -8.20691e-06 2.02641)
(0.491179 -0.400071 2.11978)
(0.698917 -0.698934 2.40193)
(0.950564 -0.814129 2.88222)
(1.22767 -0.409128 3.82692)
(0.588307 0.175329 3.33608)
(0.495737 0.392591 3.00931)
(0.387574 0.387581 2.71793)
(0.297394 0.233847 2.51737)
(0.263737 -8.40777e-06 2.44683)
(0.297395 -0.233862 2.51737)
(0.387576 -0.387594 2.71793)
(0.49574 -0.392599 3.00931)
(0.58831 -0.175332 3.33608)
(0.284441 0.0823512 3.14558)
(0.251188 0.19597 3.01074)
(0.206976 0.206983 2.85231)
(0.169652 0.128948 2.73171)
(0.155377 -8.54889e-06 2.68739)
(0.169654 -0.128964 2.73171)
(0.206978 -0.206996 2.85231)
(0.251191 -0.195979 3.01074)
(0.284444 -0.0823538 3.14557)
(0.138638 0.0404975 3.05634)
(0.126202 0.0993285 2.99434)
(0.108538 0.108544 2.91104)
(0.0934575 0.0689208 2.84372)
(0.0876161 -8.62907e-06 2.81828)
(0.0934587 -0.068937 2.84372)
(0.10854 -0.108558 2.91104)
(0.126205 -0.0993369 2.99434)
(0.138641 -0.0405002 3.05634)
(0.0679965 0.020351 3.01123)
(0.0632831 0.0506709 2.98106)
(0.0563575 0.0563633 2.93781)
(0.0503934 0.0361897 2.90161)
(0.0480675 -8.64235e-06 2.88768)
(0.0503946 -0.036206 2.90161)
(0.0563598 -0.0563767 2.93781)
(0.0632862 -0.0506793 2.98106)
(0.0679996 -0.0203536 3.01123)
(0.0333212 0.0103317 2.98789)
(0.0316216 0.0259145 2.97283)
(0.0290831 0.0290884 2.95051)
(0.0268856 0.0187915 2.93141)
(0.026026 -8.59928e-06 2.92398)
(0.0268868 -0.0188077 2.93141)
(0.0290854 -0.0291017 2.95051)
(0.0316246 -0.0259228 2.97283)
(0.0333243 -0.0103344 2.98789)
(0.0157836 0.00528757 2.97573)
(0.0154448 0.0132879 2.96819)
(0.0149403 0.0149451 2.95676)
(0.0145081 0.00966246 2.94677)
(0.0143414 -8.49699e-06 2.94284)
(0.0145093 -0.00967844 2.94677)
(0.0149426 -0.0149581 2.95676)
(0.0154479 -0.0132961 2.96819)
(0.0157867 -0.00529019 2.97573)
(0.00591601 0.00279223 2.96929)
(0.00660858 0.0069413 2.96577)
(0.00766645 0.00767063 2.96011)
(0.00860782 0.00487535 2.95486)
(0.00898824 -8.34489e-06 2.95271)
(0.00860902 -0.00489104 2.95486)
(0.00766869 -0.00768346 2.96011)
(0.00661151 -0.00694935 2.96577)
(0.00591904 -0.00279481 2.96929)
(-0.00193449 0.00176257 2.96562)
(0.000441324 0.0041028 2.96484)
(0.00403529 0.00403885 2.96263)
(0.00722862 0.0022639 2.95969)
(0.00852815 -8.13863e-06 2.95822)
(0.00722979 -0.0022792 2.95969)
(0.00403746 -0.00405132 2.96263)
(0.000444205 -0.00411063 2.96484)
(-0.00193144 -0.00176508 2.96562)
(-0.0132104 0.00201028 2.96301)
(-0.00688986 0.00395039 2.96571)
(0.0025172 0.0025201 2.96662)
(0.010909 0.000464603 2.96431)
(0.0144115 -7.88391e-06 2.96237)
(0.0109101 -0.000479412 2.96431)
(0.0025193 -0.00253218 2.96662)
(-0.0068871 -0.00395796 2.96571)
(-0.0132075 -0.0020127 2.96301)
(-0.0373281 0.00446702 2.96069)
(-0.0209463 0.00772063 2.97104)
(0.00264099 0.00264321 2.97706)
(0.0238153 -0.00199408 2.97326)
(0.0331123 -7.5769e-06 2.96836)
(0.0238163 0.00197985 2.97326)
(0.00264299 -0.00265478 2.97706)
(-0.0209436 -0.00772789 2.97104)
(-0.0373253 -0.00446936 2.9607)
(-0.0956347 0.0123581 2.96117)
(-0.052932 0.0203163 2.99045)
(0.00473891 0.00474044 3.00713)
(0.0569572 -0.00823226 2.9975)
(0.0821625 -7.22318e-06 2.98305)
(0.0569582 0.0082187 2.9975)
(0.0047408 -0.00475146 3.00713)
(-0.0529295 -0.0203232 2.99045)
(-0.0956321 -0.0123603 2.96117)
(-0.237995 0.0337453 2.98257)
(-0.125518 0.0536778 3.0533)
(0.00968745 0.00968829 3.08983)
(0.13346 -0.0260741 3.06641)
(0.203999 -6.81877e-06 3.02719)
(0.133461 0.0260613 3.06641)
(0.00968921 -0.00969865 3.08983)
(-0.125516 -0.0536843 3.05331)
(-0.237993 -0.0337474 2.98257)
(-0.566708 0.0830932 3.10621)
(-0.272731 0.127574 3.23481)
(0.0178428 0.0178429 3.29241)
(0.287264 -0.0708711 3.25125)
(0.487706 -6.36563e-06 3.17073)
(0.287265 0.0708592 3.25125)
(0.0178444 -0.0178526 3.29241)
(-0.272729 -0.12758 3.23481)
(-0.566706 -0.0830951 3.10621)
(-1.17609 0.162341 3.58034)
(-0.485656 0.239876 3.65953)
(0.0261345 0.0261339 3.69251)
(0.506509 -0.147757 3.66768)
(1.02433 -5.86113e-06 3.61553)
(0.50651 0.147746 3.66768)
(0.026136 -0.0261428 3.69251)
(-0.485654 -0.239882 3.65954)
(-1.17609 -0.162343 3.58034)
(-1.17623 0.162291 4.32097)
(-0.485795 0.23975 4.24155)
(0.0259917 0.0259904 4.20823)
(0.506363 -0.147851 4.23276)
(1.02418 -5.30822e-06 4.28479)
(0.506364 0.147841 4.23276)
(0.025993 -0.0259984 4.20824)
(-0.485793 -0.239755 4.24156)
(-1.17622 -0.162293 4.32098)
(-0.567185 0.0829196 4.79529)
(-0.273215 0.127135 4.66636)
(0.0173466 0.0173445 4.60826)
(0.286757 -0.0711956 4.64897)
(0.487195 -4.70629e-06 4.72932)
(0.286758 0.0711868 4.64897)
(0.0173478 -0.0173516 4.60826)
(-0.273214 -0.127139 4.66636)
(-0.567183 -0.0829211 4.79529)
(-0.239026 0.0333664 4.91939)
(-0.12657 0.0527195 4.84806)
(0.00860285 0.00859997 4.81064)
(0.132347 -0.026783 4.83327)
(0.202874 -4.05688e-06 4.87217)
(0.132348 0.0267754 4.83327)
(0.00860388 -0.00860603 4.81064)
(-0.126569 -0.0527233 4.84806)
(-0.239024 -0.0333676 4.91939)
(-0.0976832 0.0115953 4.94173)
(-0.055035 0.0183864 4.91132)
(0.00255202 0.0025483 4.89292)
(0.0546966 -0.00966064 4.90103)
(0.0798726 -3.36383e-06 4.91488)
(0.054697 0.00965437 4.90103)
(0.00255285 -0.00255328 4.89292)
(-0.0550339 -0.0183895 4.91133)
(-0.0976819 -0.0115963 4.94173)
(-0.0413012 0.00295923 4.9441)
(-0.0250586 0.00390572 4.93154)
(-0.00168505 -0.00168963 4.92215)
(0.0193018 -0.00481753 4.92299)
(0.0285247 -2.63311e-06 4.92672)
(0.0193021 0.00481263 4.92299)
(-0.00168439 0.00168578 4.92215)
(-0.0250578 -0.00390807 4.93155)
(-0.0413002 -0.00296 4.9441)
(-0.0208313 -0.00095859 4.94552)
(-0.0148656 -0.00356091 4.93847)
(-0.00600245 -0.00600793 4.93092)
(0.00191341 -0.00509056 4.92742)
(0.00522862 -1.87389e-06 4.92708)
(0.00191366 0.0050871 4.92742)
(-0.006002 0.00600526 4.93092)
(-0.014865 0.00355927 4.93848)
(-0.0208305 0.000958026 4.94552)
(-0.0164173 -0.00408462 4.95028)
(-0.014945 -0.0106897 4.9425)
(-0.0127368 -0.0127431 4.9316)
(-0.0107512 -0.00865611 4.92311)
(-0.00992491 -1.09056e-06 4.9201)
(-0.010751 0.00865412 4.92311)
(-0.0127365 0.0127417 4.9316)
(-0.0149447 0.0106889 4.9425)
(-0.0164169 0.00408434 4.95029)
(-0.0213035 -0.00874247 4.96124)
(-0.0229094 -0.0222446 4.94781)
(-0.0253887 -0.025396 4.92745)
(-0.0275097 -0.0165902 4.91019)
(-0.0283213 -2.92339e-07 4.90358)
(-0.0275097 0.0165897 4.91019)
(-0.0253887 0.0253957 4.92745)
(-0.0229093 0.0222445 4.94782)
(-0.0213032 0.0087424 4.96125)
(-0.0346078 -0.0175168 4.9839)
(-0.040783 -0.0444828 4.9578)
(-0.0503561 -0.0503642 4.9171)
(-0.0585432 -0.032525 4.88276)
(-0.0616939 5.26144e-07 4.86968)
(-0.0585433 0.0325261 4.88276)
(-0.0503563 0.0503652 4.91711)
(-0.0407833 0.0444835 4.95781)
(-0.0346079 0.0175171 4.98391)
(-0.0579799 -0.0348413 5.02975)
(-0.0744302 -0.0890437 4.97819)
(-0.10043 -0.100439 4.89404)
(-0.122218 -0.0640143 4.82601)
(-0.130467 1.36979e-06 4.80092)
(-0.122219 0.0640169 4.82601)
(-0.100431 0.100441 4.89405)
(-0.0744307 0.0890452 4.97819)
(-0.0579802 0.0348417 5.02975)
(-0.0922118 -0.0690803 5.12206)
(-0.133757 -0.180189 5.02215)
(-0.202536 -0.202546 4.83878)
(-0.257753 -0.125648 4.70512)
(-0.278015 2.27098e-06 4.65909)
(-0.257753 0.125652 4.70512)
(-0.202537 0.202549 4.83878)
(-0.133758 0.180191 5.02216)
(-0.0922124 0.0690809 5.12207)
(-0.128835 -0.134752 5.30568)
(-0.230404 -0.372328 5.12827)
(-0.417459 -0.417469 4.68408)
(-0.55498 -0.243699 4.42998)
(-0.602833 3.22369e-06 4.35337)
(-0.55498 0.243705 4.42998)
(-0.41746 0.417474 4.68408)
(-0.230405 0.372331 5.12827)
(-0.128835 0.134753 5.30568)
(-0.127172 -0.246491 5.6542)
(-0.358147 -0.801789 5.44667)
(-0.900828 -0.900837 4.14921)
(-1.23361 -0.45636 3.72651)
(-1.34002 4.15022e-06 3.62705)
(-1.23361 0.456368 3.72651)
(-0.900828 0.900844 4.14922)
(-0.358147 0.801792 5.44667)
(-0.127172 0.246492 5.6542)
(0.0366788 -0.34228 6.2047)
(-0.376156 -1.87731 6.73388)
(-2.13762 -2.13763 1.86485)
(-2.87867 -0.765863 1.6078)
(-3.09131 4.83029e-06 1.55535)
(-2.87867 0.765872 1.6078)
(-2.13762 2.13764 1.86486)
(-0.376156 1.87731 6.73389)
(0.0366785 0.34228 6.2047)
(0.611174 0.282693 6.29498)
(0.676064 0.282693 8.08623)
(0.676063 -0.282694 8.08623)
(0.611173 -0.282694 6.29498)
(1.40319 1.44898 4.78539)
(2.43407 5.23405 6.51803)
(5.75667 5.75666 3.62698)
(7.27725 2.57682 3.62862)
(7.70962 3.8292e-06 3.58232)
(7.27725 -2.57681 3.62861)
(5.75666 -5.75665 3.62697)
(2.43406 -5.23404 6.51803)
(1.40319 -1.44897 4.78539)
(1.85228 2.01533 1.75473)
(3.2102 7.10629 2.32109)
(7.06419 7.06418 13.4894)
(8.19696 2.53216 12.1473)
(8.46532 1.75584e-06 11.8061)
(8.19695 -2.53215 12.1473)
(7.06418 -7.06417 13.4894)
(3.21019 -7.10628 2.32109)
(1.85227 -2.01533 1.75473)
(0.629434 0.629431 18.466)
(0.706475 0.89346 16.6962)
(0.736014 -7.28026e-07 16.2395)
(0.706474 -0.89346 16.6962)
(0.629432 -0.62943 18.466)
(0.203426 0.203425 16.8003)
(0.219221 0.305665 16.2371)
(0.226429 -1.48257e-06 16.0096)
(0.219221 -0.305667 16.2371)
(0.203425 -0.203425 16.8003)
(0.0662319 0.0662312 16.261)
(0.0695428 0.102774 16.0792)
(0.0712258 -1.33413e-06 15.9895)
(0.0695427 -0.102776 16.0792)
(0.0662316 -0.066232 16.261)
(0.0216459 0.0216455 16.0852)
(0.022351 0.0342053 16.0261)
(0.0227347 -7.16875e-07 15.9938)
(0.022351 -0.0342067 16.0261)
(0.0216458 -0.0216462 16.0852)
(0.00708669 0.00708648 16.0277)
(0.00723852 0.0113142 16.0084)
(0.00732493 -4.82026e-07 15.9973)
(0.00723865 -0.0113153 16.0084)
(0.00708694 -0.00708709 16.0277)
(0.00232155 0.00232145 16.0089)
(0.00235456 0.00372821 16.0026)
(0.00237383 -3.80989e-08 15.9988)
(0.0023546 -0.00372854 16.0026)
(0.00232172 -0.00232174 16.0089)
(0.000760478 0.000760428 16.0028)
(0.000767745 0.00122534 16.0007)
(0.000772114 -3.72076e-08 15.9994)
(0.00076789 -0.00122567 16.0007)
(0.000760827 -0.000760714 16.0028)
(0.000248951 0.00024893 16.0007)
(0.000250624 0.000402075 16.0001)
(0.000251565 2.1971e-07 15.9997)
(0.000250651 -0.000401915 16.0001)
(0.00024913 -0.000248989 16.0007)
(8.13178e-05 8.13092e-05 16.0001)
(8.17401e-05 0.000131543 15.9999)
(8.20327e-05 6.09106e-08 15.9997)
(8.18626e-05 -0.000131637 15.9999)
(8.16195e-05 -8.14643e-05 16.0001)
(2.6355e-05 2.63523e-05 15.9999)
(2.64634e-05 4.27934e-05 15.9998)
(2.65008e-05 1.53227e-07 15.9998)
(2.64747e-05 -4.26698e-05 15.9998)
(2.64226e-05 -2.63819e-05 15.9999)
(8.23268e-06 8.23224e-06 15.9998)
(8.23466e-06 1.33249e-05 15.9998)
(8.27853e-06 -1.18145e-07 15.9998)
(8.29314e-06 -1.35715e-05 15.9998)
(8.38889e-06 -8.36078e-06 15.9998)
(1.94563e-06 1.94577e-06 15.9998)