/*--------------------------------*- C++ -*----------------------------------*\
  =========                 |
  \\      /  F ield         | OpenFOAM: The Open Source CFD Toolbox
   \\    /   O peration     | Website:  https://openfoam.org
    \\  /    A nd           | Version:  6
     \\/     M anipulation  |
\*---------------------------------------------------------------------------*/
FoamFile
{
    version     2.0;
    format      ascii;
    class       volVectorField;
    location    "0";
    object      U;
}
// * * * * * * * * * * * * * * * * * * * * * * * * * * * * * * * * * * * * * //

dimensions      [0 1 -1 0 0 0 0];

internalField   nonuniform List<vector> 
3029
(
(0.103016 0.103016 0.0396088)
(0.236093 0.0880398 0.0483234)
(0.346552 0.173993 0.0473029)
(0.0432818 0.164123 0.0477135)
(0.0286239 -4.8812e-08 0.0445042)
(0.0432818 -0.164123 0.0477134)
(0.346551 -0.173993 0.0473028)
(0.236093 -0.0880398 0.0483233)
(0.103016 -0.103016 0.0396087)
(0.190948 0.190948 0.259832)
(0.339309 0.0957339 0.244783)
(0.443584 0.173383 0.232656)
(0.0391156 0.161325 0.150927)
(0.024967 -8.22786e-08 0.130751)
(0.0391156 -0.161325 0.150926)
(0.443584 -0.173383 0.232656)
(0.339309 -0.0957339 0.244782)
(0.190948 -0.190948 0.259832)
(0.0265564 0.0265565 0.387334)
(0.0348315 0.0608641 0.350336)
(0.0352361 0.0801371 0.323949)
(0.0203992 0.062218 0.215468)
(0.0155568 -1.62838e-07 0.189714)
(0.0203992 -0.0622182 0.215468)
(0.035236 -0.0801373 0.323949)
(0.0348315 -0.0608642 0.350335)
(0.0265564 -0.0265565 0.387333)
(0.0133224 0.0133225 0.307576)
(0.0144442 0.0323493 0.287604)
(0.0136693 0.0385154 0.26306)
(0.0101152 0.0270894 0.226282)
(0.00865496 -2.529e-07 0.213481)
(0.0101152 -0.0270899 0.226282)
(0.0136693 -0.0385158 0.263059)
(0.0144441 -0.0323494 0.287604)
(0.0133224 -0.0133225 0.307575)
(0.00658457 0.00658463 0.267762)
(0.00658986 0.0163481 0.257686)
(0.00608845 0.0188149 0.243552)
(0.00508246 0.0126389 0.228436)
(0.00463539 -3.44324e-07 0.222567)
(0.00508246 -0.0126395 0.228435)
(0.00608844 -0.0188154 0.243551)
(0.00658984 -0.0163483 0.257686)
(0.00658451 -0.00658465 0.267761)
(0.00324702 0.00324709 0.248098)
(0.00315995 0.00813939 0.243111)
(0.00292077 0.00926481 0.235773)
(0.00259544 0.00610455 0.228862)
(0.00245085 -4.34336e-07 0.22612)
(0.00259543 -0.00610537 0.228861)
(0.00292076 -0.00926545 0.235773)
(0.00315993 -0.0081397 0.243111)
(0.00324695 -0.00324714 0.248097)
(0.00159814 0.00159823 0.238407)
(0.00154893 0.00402364 0.235929)
(0.00145113 0.00456497 0.232206)
(0.00134102 0.00298496 0.228859)
(0.00129324 -5.21167e-07 0.22753)
(0.00134102 -0.00298593 0.228859)
(0.00145112 -0.00456575 0.232206)
(0.00154891 -0.00402404 0.235929)
(0.00159807 -0.0015983 0.238406)
(0.00076922 0.000769315 0.233671)
(0.000756747 0.00193877 0.232395)
(0.000732886 0.0021945 0.230451)
(0.000706836 0.00142877 0.228725)
(0.000695532 -6.03511e-07 0.22804)
(0.000706835 -0.0014299 0.228725)
(0.000732882 -0.00219541 0.230451)
(0.000756728 -0.00193924 0.232394)
(0.000769143 -0.000769406 0.233671)
(0.000321611 0.000321718 0.231489)
(0.000343873 0.000803723 0.230732)
(0.000377296 0.000895538 0.229553)
(0.000406166 0.000573657 0.228486)
(0.000417593 -6.78119e-07 0.228055)
(0.000406166 -0.000574928 0.228486)
(0.000377293 -0.000896555 0.229553)
(0.000343857 -0.000804254 0.230732)
(0.000321532 -0.000321825 0.231488)
(1.28081e-05 1.29253e-05 0.230819)
(9.21908e-05 2.91813e-06 0.230157)
(0.000215075 -5.18822e-05 0.22906)
(0.000325801 -6.92132e-05 0.227992)
(0.000370954 -7.43511e-07 0.227532)
(0.000325803 6.78195e-05 0.227992)
(0.000215074 5.07685e-05 0.229059)
(9.21754e-05 -3.50152e-06 0.230157)
(1.27245e-05 -1.30452e-05 0.230819)
(-0.000339899 -0.000339773 0.231472)
(-0.000131439 -0.000955635 0.230494)
(0.000194065 -0.00127023 0.228719)
(0.000493978 -0.000953662 0.226801)
(0.000620397 -7.96462e-07 0.225888)
(0.000493981 0.000952169 0.226801)
(0.000194068 0.00126903 0.228719)
(-0.000131449 0.00095501 0.230494)
(-0.000339982 0.000339645 0.231472)
(-0.000965163 -0.000965033 0.234081)
(-0.000444573 -0.00274972 0.232164)
(0.000378813 -0.00374496 0.228359)
(0.00116765 -0.00290063 0.223763)
(0.00152361 -8.34731e-07 0.221265)
(0.00116766 0.00289907 0.223763)
(0.000378819 0.00374372 0.228359)
(-0.000444583 0.00274907 0.232164)
(-0.000965251 0.000964902 0.234081)
(-0.00225682 -0.00225669 0.240524)
(-0.000988296 -0.00667752 0.236579)
(0.00106216 -0.00967131 0.227922)
(0.00316984 -0.00804774 0.215951)
(0.00425824 -8.55207e-07 0.208008)
(0.00316985 0.00804614 0.215951)
(0.00106217 0.00967004 0.227922)
(-0.000988298 0.00667686 0.236579)
(-0.00225691 0.00225656 0.240524)
(-0.00491004 -0.00490991 0.254856)
(-0.00192012 -0.0153517 0.247181)
(0.00309074 -0.0243729 0.228086)
(0.00890767 -0.0228141 0.19637)
(0.0127368 -8.57078e-07 0.167653)
(0.00890769 0.0228125 0.19637)
(0.00309075 0.0243717 0.228086)
(-0.00192012 0.015351 0.247181)
(-0.00491012 0.00490979 0.254856)
(-0.00993171 -0.0099316 0.284538)
(-0.00328218 -0.0334474 0.271497)
(0.00853078 -0.0604823 0.233403)
(0.025226 -0.0684808 0.151734)
(0.0413517 -8.44315e-07 0.0327701)
(0.0252261 0.0684792 0.151734)
(0.00853081 0.060481 0.233403)
(-0.00328217 0.0334468 0.271497)
(-0.00993179 0.00993148 0.284538)
(-0.0179508 -0.0179507 0.340302)
(-0.00466923 -0.0664869 0.323616)
(0.0211153 -0.144136 0.264269)
(0.0698705 -0.223447 0.0834315)
(0.150842 -8.21327e-07 -0.478146)
(0.0698706 0.223445 0.0834316)
(0.0211154 0.144135 0.264269)
(-0.00466922 0.0664863 0.323616)
(-0.0179509 0.0179506 0.340302)
(-0.0266172 -0.0266171 0.429436)
(-0.00514619 -0.10948 0.420261)
(0.0416283 -0.300667 0.383527)
(0.170638 -0.810896 0.250457)
(3.07601 -7.79839e-07 -0.268626)
(0.170638 0.810895 0.250457)
(0.0416284 0.300666 0.383528)
(-0.00514616 0.10948 0.420261)
(-0.0266172 0.026617 0.429437)
(-0.027126 -0.027126 0.536921)
(-0.00513047 -0.112396 0.544926)
(0.0431992 -0.31394 0.577039)
(0.179884 -0.8756 0.693482)
(3.47885 -6.76471e-07 1.14783)
(0.179884 0.875599 0.693482)
(0.0431992 0.313939 0.577039)
(-0.00513044 0.112395 0.544926)
(-0.027126 0.0271258 0.536922)
(-0.0186126 -0.0186126 0.628397)
(-0.0047696 -0.0693628 0.645106)
(0.02227 -0.152111 0.705579)
(0.0743132 -0.240103 0.894927)
(0.162914 -5.57615e-07 1.50783)
(0.0743132 0.240102 0.894927)
(0.02227 0.15211 0.705579)
(-0.00476956 0.0693622 0.645106)
(-0.0186126 0.0186124 0.628398)
(-0.0104175 -0.0104175 0.686457)
(-0.00343397 -0.0352147 0.699825)
(0.00902003 -0.064119 0.739423)
(0.0268324 -0.0733444 0.825863)
(0.0443641 -4.50524e-07 0.955027)
(0.0268324 0.0733435 0.825864)
(0.00902007 0.0641183 0.739423)
(-0.00343393 0.0352142 0.699826)
(-0.0104174 0.0104173 0.686457)
(-0.00524356 -0.00524364 0.717778)
(-0.00209372 -0.0163968 0.725642)
(0.00319775 -0.0260727 0.745496)
(0.00938761 -0.0244988 0.779003)
(0.0135169 -3.17167e-07 0.809943)
(0.00938763 0.0244982 0.779004)
(0.0031978 0.0260722 0.745496)
(-0.00209365 0.0163963 0.725643)
(-0.00524348 0.00524345 0.717779)
(-0.00255352 -0.00255365 0.733372)
(-0.00122087 -0.0074971 0.737256)
(0.00093677 -0.0107575 0.745999)
(0.0031662 -0.008897 0.758379)
(0.0043279 -1.64114e-07 0.766775)
(0.00316621 0.00889669 0.758379)
(0.000936805 0.0107573 0.745999)
(-0.00122081 0.00749681 0.737257)
(-0.00255342 0.00255348 0.733373)
(-0.00135964 -0.0013598 0.741199)
(-0.000828953 -0.00377045 0.742748)
(1.20127e-05 -0.0049504 0.746051)
(0.000822309 -0.00372253 0.750303)
(0.00119112 -1.446e-08 0.752726)
(0.000822326 0.0037225 0.750303)
(1.20484e-05 0.00495036 0.746051)
(-0.000828889 0.00377026 0.742749)
(-0.0013595 0.00135965 0.7412)
(-0.00100495 -0.00100515 0.74593)
(-0.000835575 -0.00264574 0.7461)
(-0.000569508 -0.00320237 0.74666)
(-0.000319952 -0.00222179 0.747543)
(-0.000212414 1.32433e-07 0.748063)
(-0.000319939 0.00222205 0.747544)
(-0.000569484 0.00320257 0.746661)
(-0.000835524 0.0026457 0.746101)
(-0.0010048 0.00100504 0.74593)
(-0.0011888 -0.00118903 0.750319)
(-0.00123562 -0.00303998 0.749471)
(-0.00130636 -0.00350727 0.748264)
(-0.00136269 -0.00231949 0.747333)
(-0.00138233 2.64892e-07 0.747013)
(-0.00136268 0.00231999 0.747333)
(-0.00130633 0.00350767 0.748265)
(-0.00123556 0.00304004 0.749472)
(-0.00118863 0.00118894 0.750319)
(-0.00185231 -0.00185257 0.756402)
(-0.00216138 -0.00469977 0.754527)
(-0.00263959 -0.00534029 0.751664)
(-0.00304748 -0.0034732 0.74924)
(-0.00320403 3.86531e-07 0.748315)
(-0.00304748 0.00347394 0.74924)
(-0.00263957 0.00534089 0.751664)
(-0.00216133 0.00469998 0.754528)
(-0.00185214 0.00185252 0.756403)
(-0.00306399 -0.00306426 0.766237)
(-0.00391549 -0.00777844 0.763252)
(-0.00525483 -0.00879498 0.758574)
(-0.00637872 -0.00566901 0.754663)
(-0.00680446 4.87599e-07 0.753188)
(-0.00637872 0.00566993 0.754663)
(-0.00525481 0.00879573 0.758574)
(-0.00391544 0.00777873 0.763252)
(-0.00306381 0.00306424 0.766238)
(-0.0048378 -0.00483809 0.782043)
(-0.00695934 -0.0123633 0.778467)
(-0.010419 -0.0139291 0.772495)
(-0.0132182 -0.00885876 0.767821)
(-0.0142494 5.73158e-07 0.766157)
(-0.0132182 0.00885984 0.767821)
(-0.010419 0.01393 0.772496)
(-0.0069593 0.0123637 0.778467)
(-0.00483763 0.00483811 0.782043)
(-0.00664029 -0.00664058 0.805001)
(-0.0115991 -0.017326 0.80376)
(-0.0203233 -0.0194407 0.800189)
(-0.0269148 -0.0120071 0.798504)
(-0.0292347 6.37128e-07 0.79823)
(-0.0269148 0.0120083 0.798504)
(-0.0203233 0.0194417 0.800189)
(-0.011599 0.0173264 0.80376)
(-0.00664012 0.00664062 0.805002)
(-0.00607908 -0.00607937 0.830442)
(-0.016262 -0.0171757 0.840686)
(-0.0371754 -0.019185 0.852753)
(-0.0510961 -0.0108182 0.865655)
(-0.0556608 6.84527e-07 0.871164)
(-0.0510961 0.0108195 0.865655)
(-0.0371754 0.0191861 0.852753)
(-0.016262 0.0171763 0.840686)
(-0.00607892 0.00607945 0.830443)
(0.00360335 0.00360306 0.835396)
(-0.010709 0.00498418 0.874899)
(-0.0516218 0.00552847 0.935779)
(-0.0729716 0.00640396 0.986257)
(-0.0792649 7.09975e-07 1.00514)
(-0.0729716 -0.00640261 0.986257)
(-0.0516218 -0.00552736 0.935779)
(-0.010709 -0.00498361 0.874899)
(0.0036035 -0.00360296 0.835396)
(0.0334238 0.0334235 0.761344)
(0.0395579 0.0832066 0.831915)
(0.0426352 0.0921732 0.949395)
(0.0493443 0.0585479 1.03801)
(0.0517918 7.09801e-07 1.06945)
(0.0493443 -0.0585466 1.03801)
(0.0426352 -0.0921721 0.949395)
(0.039558 -0.083206 0.831915)
(0.0334239 -0.0334234 0.761344)
(0.0741744 0.0741741 0.54615)
(0.119137 0.193035 0.612177)
(0.218531 0.211623 0.721722)
(0.274611 0.126457 0.799358)
(0.291327 6.76378e-07 0.826035)
(0.274611 -0.126456 0.799358)
(0.218531 -0.211622 0.721722)
(0.119137 -0.193034 0.612177)
(0.0741745 -0.074174 0.54615)
(0.099451 0.0994508 0.198901)
(0.164302 0.258779 0.224178)
(0.303948 0.279354 0.264645)
(0.3691 0.162861 0.291908)
(0.386719 6.47671e-07 0.301049)
(0.3691 -0.16286 0.291908)
(0.303948 -0.279353 0.264645)
(0.164302 -0.258778 0.224178)
(0.0994511 -0.0994506 0.198901)
(0.0880398 0.236093 0.0483234)
(0.155495 0.155495 0.0548927)
(0.170639 0.125804 0.0497296)
(0.0828897 0.0836856 0.0435473)
(0.0602126 -7.28782e-08 0.0408474)
(0.0828897 -0.0836857 0.0435472)
(0.170639 -0.125804 0.0497295)
(0.155495 -0.155495 0.0548927)
(0.0880397 -0.236093 0.0483233)
(0.0957339 0.339309 0.244783)
(0.156902 0.156902 0.188143)
(0.166869 0.114459 0.158831)
(0.0736728 0.0748033 0.128044)
(0.0523571 -1.08803e-07 0.117684)
(0.0736728 -0.0748035 0.128044)
(0.166869 -0.114459 0.158831)
(0.156902 -0.156902 0.188143)
(0.0957338 -0.339309 0.244782)
(0.060864 0.0348316 0.350336)
(0.0695437 0.0695438 0.266739)
(0.066264 0.0657048 0.22613)
(0.0427704 0.0425387 0.186467)
(0.0344775 -1.78014e-07 0.173402)
(0.0427704 -0.042539 0.186467)
(0.066264 -0.065705 0.22613)
(0.0695436 -0.0695438 0.266739)
(0.060864 -0.0348316 0.350335)
(0.0323492 0.0144442 0.287604)
(0.032696 0.0326962 0.259362)
(0.0298011 0.0341865 0.233912)
(0.0230006 0.0220751 0.210965)
(0.020162 -2.61608e-07 0.202559)
(0.0230006 -0.0220756 0.210965)
(0.0298011 -0.0341869 0.233912)
(0.032696 -0.0326963 0.259362)
(0.0323491 -0.0144443 0.287603)
(0.0163479 0.00658992 0.257686)
(0.0158518 0.0158519 0.246402)
(0.0143566 0.0173075 0.232803)
(0.0121426 0.0111858 0.220916)
(0.0111769 -3.49397e-07 0.216363)
(0.0121426 -0.0111865 0.220916)
(0.0143566 -0.017308 0.232803)
(0.0158518 -0.0158522 0.246401)
(0.0163479 -0.00658998 0.257686)
(0.00813919 0.00316002 0.243111)
(0.00781293 0.00781314 0.238071)
(0.00715029 0.0087003 0.231136)
(0.00637283 0.00563463 0.22512)
(0.00603631 -4.37709e-07 0.222777)
(0.00637285 -0.00563545 0.22512)
(0.00715031 -0.00870096 0.231136)
(0.00781295 -0.00781351 0.23807)
(0.00813915 -0.00316011 0.243111)
(0.0040234 0.00154901 0.235929)
(0.00387638 0.00387663 0.233526)
(0.00361414 0.00435707 0.230018)
(0.00334036 0.00282707 0.22697)
(0.00322415 -5.23547e-07 0.225775)
(0.00334039 -0.00282805 0.22697)
(0.00361418 -0.00435786 0.230018)
(0.00387642 -0.00387708 0.233525)
(0.00402338 -0.00154913 0.235929)
(0.0019385 0.000756842 0.232395)
(0.00190215 0.00190244 0.23119)
(0.00183804 0.00214459 0.229378)
(0.0017721 0.00139142 0.227791)
(0.00174408 -6.04941e-07 0.227164)
(0.00177213 -0.00139255 0.22779)
(0.00183809 -0.00214551 0.229377)
(0.00190221 -0.00190298 0.231189)
(0.00193848 -0.000756991 0.232394)
(0.000803412 0.000343979 0.230732)
(0.000859088 0.000859408 0.230068)
(0.000942892 0.000957831 0.229035)
(0.00101547 0.000613954 0.228105)
(0.00104419 -6.78358e-07 0.22773)
(0.00101551 -0.000615228 0.228105)
(0.000942956 -0.000958864 0.229035)
(0.000859156 -0.000860016 0.230067)
(0.000803407 -0.00034415 0.230732)
(2.57632e-06 9.2308e-05 0.230157)
(0.000204833 0.000205185 0.229682)
(0.000515991 0.000181728 0.228876)
(0.000794273 8.66658e-05 0.228079)
(0.000906938 -7.42431e-07 0.227735)
(0.000794316 -8.80601e-05 0.228079)
(0.000516067 -0.000182859 0.228876)
(0.000204914 -0.000205851 0.229682)
(2.5776e-06 -9.24961e-05 0.230157)
(-0.000956 -0.000131314 0.230494)
(-0.000422048 -0.000421672 0.229957)
(0.00040183 -0.000644809 0.228883)
(0.00114975 -0.000527329 0.227643)
(0.0014601 -7.93259e-07 0.227041)
(0.0011498 0.00052584 0.227643)
(0.000401921 0.000643602 0.228883)
(-0.000421949 0.000420959 0.229957)
(-0.000955986 0.000131112 0.230494)
(-0.0027501 -0.000444443 0.232164)
(-0.00140613 -0.00140574 0.231307)
(0.000672193 -0.00213274 0.229227)
(0.00260713 -0.00175583 0.226439)
(0.0034512 -8.29512e-07 0.224903)
(0.00260719 0.00175427 0.226439)
(0.000672296 0.00213148 0.229227)
(-0.00140602 0.001405 0.231307)
(-0.00275008 0.000444234 0.232164)
(-0.0066779 -0.000988166 0.236579)
(-0.00335893 -0.00335854 0.235103)
(0.0017838 -0.00551318 0.230634)
(0.00679296 -0.00485166 0.223691)
(0.00920743 -8.46302e-07 0.219221)
(0.00679302 0.00485007 0.223691)
(0.00178392 0.00551189 0.230634)
(-0.0033588 0.00335778 0.235103)
(-0.00667787 0.000987953 0.236579)
(-0.015352 -0.00191999 0.247181)
(-0.00735127 -0.00735089 0.244887)
(0.00505443 -0.0135452 0.235555)
(0.0181301 -0.0131681 0.218426)
(0.0257319 -8.45118e-07 0.204746)
(0.0181302 0.0131665 0.218426)
(0.00505456 0.0135439 0.235555)
(-0.00735113 0.00735014 0.244887)
(-0.015352 0.00191978 0.247181)
(-0.0334477 -0.00328207 0.271497)
(-0.0149852 -0.0149849 0.268748)
(0.0135653 -0.031974 0.251427)
(0.0479213 -0.0356599 0.212697)
(0.0754312 -8.25076e-07 0.170875)
(0.0479214 0.0356584 0.212697)
(0.0135654 0.0319728 0.251428)
(-0.0149851 0.0149842 0.268748)
(-0.0334477 0.00328187 0.271497)
(-0.0664872 -0.00466914 0.323616)
(-0.0274211 -0.0274208 0.321752)
(0.0324468 -0.0695961 0.297366)
(0.121272 -0.0937205 0.228844)
(0.237912 -7.86521e-07 0.117389)
(0.121272 0.0937191 0.228844)
(0.0324469 0.0695949 0.297367)
(-0.0274209 0.0274201 0.321752)
(-0.0664871 0.00466894 0.323617)
(-0.10948 -0.00514612 0.420261)
(-0.041235 -0.0412348 0.4198)
(0.0615914 -0.124882 0.405611)
(0.266199 -0.215637 0.36047)
(0.834667 -7.22478e-07 0.272827)
(0.266199 0.215636 0.36047)
(0.0615916 0.124881 0.405611)
(-0.0412348 0.0412341 0.4198)
(-0.10948 0.00514592 0.420261)
(-0.112396 -0.00513044 0.544926)
(-0.0420708 -0.0420708 0.545302)
(0.0637427 -0.128926 0.55768)
(0.278739 -0.226505 0.597157)
(0.899938 -6.38222e-07 0.673858)
(0.278739 0.226504 0.597157)
(0.0637428 0.128925 0.557681)
(-0.0420707 0.0420701 0.545303)
(-0.112396 0.00513024 0.544926)
(-0.0693628 -0.0047696 0.645106)
(-0.0284802 -0.0284802 0.646802)
(0.0341269 -0.0730278 0.671399)
(0.128293 -0.0994595 0.741876)
(0.25511 -5.48651e-07 0.859904)
(0.128293 0.0994585 0.741876)
(0.034127 0.073027 0.6714)
(-0.02848 0.0284796 0.646803)
(-0.0693626 0.00476941 0.645106)
(-0.0352145 -0.00343401 0.699826)
(-0.015777 -0.0157772 0.702501)
(0.0142742 -0.0338527 0.72035)
(0.0507417 -0.0380004 0.760938)
(0.0804533 -4.33484e-07 0.80563)
(0.0507418 0.0379995 0.760938)
(0.0142743 0.033852 0.720351)
(-0.0157769 0.0157767 0.702502)
(-0.0352144 0.00343383 0.699826)
(-0.0163965 -0.00209379 0.725642)
(-0.00795519 -0.00795543 0.727855)
(0.00513374 -0.0145914 0.737412)
(0.0190002 -0.0141797 0.755337)
(0.0271514 -2.93042e-07 0.769907)
(0.0190003 0.0141791 0.755338)
(0.00513385 0.0145909 0.737413)
(-0.00795502 0.00795506 0.727856)
(-0.0163963 0.00209363 0.725643)
(-0.00749673 -0.00122099 0.737256)
(-0.00400643 -0.0040068 0.738521)
(0.00140254 -0.00637048 0.742813)
(0.00668902 -0.00550587 0.749813)
(0.00925509 -1.45078e-07 0.754449)
(0.00668906 0.0055056 0.749814)
(0.00140262 0.00637025 0.742814)
(-0.00400631 0.00400659 0.738522)
(-0.00749654 0.00122087 0.737257)
(-0.00376997 -0.000829114 0.742748)
(-0.0023983 -0.0023988 0.743133)
(-0.000276237 -0.00329914 0.744544)
(0.00170708 -0.00254342 0.746817)
(0.002578 2.92156e-09 0.748186)
(0.00170711 0.00254343 0.746817)
(-0.000276179 0.00329914 0.744545)
(-0.0023982 0.00239872 0.743134)
(-0.00376976 0.000829038 0.742749)
(-0.00264515 -0.000835774 0.7461)
(-0.00220969 -0.0022103 0.745694)
(-0.00153635 -0.00268675 0.745342)
(-0.000917029 -0.0018647 0.745358)
(-0.000655472 1.44772e-07 0.74549)
(-0.000917017 0.00186498 0.745359)
(-0.00153633 0.00268698 0.745342)
(-0.00220963 0.00221038 0.745694)
(-0.00264497 0.000835758 0.746101)
(-0.0030393 -0.00123585 0.749471)
(-0.00315684 -0.00315754 0.748145)
(-0.00333673 -0.00363434 0.746194)
(-0.00348232 -0.00239547 0.744606)
(-0.00353417 2.7658e-07 0.744021)
(-0.00348232 0.00239599 0.744606)
(-0.00333672 0.00363479 0.746195)
(-0.00315679 0.00315775 0.748146)
(-0.0030391 0.00123587 0.749472)
(-0.00469902 -0.00216163 0.754527)
(-0.00548628 -0.00548706 0.751847)
(-0.00670669 -0.0062264 0.747716)
(-0.00774697 -0.00403764 0.744224)
(-0.00814609 3.94282e-07 0.742892)
(-0.00774699 0.0040384 0.744224)
(-0.00670671 0.00622704 0.747716)
(-0.00548628 0.00548741 0.751848)
(-0.00469886 0.00216171 0.754528)
(-0.00777764 -0.00391576 0.763252)
(-0.00996846 -0.00996929 0.758454)
(-0.0134306 -0.0112582 0.750794)
(-0.0163257 -0.00721864 0.744492)
(-0.0174199 4.94976e-07 0.742143)
(-0.0163257 0.00721958 0.744492)
(-0.0134306 0.011259 0.750794)
(-0.00996847 0.00996974 0.758454)
(-0.00777749 0.00391587 0.763252)
(-0.0123625 -0.00695962 0.778467)
(-0.0179437 -0.0179445 0.770783)
(-0.0271769 -0.0201879 0.757427)
(-0.0345648 -0.0126892 0.747285)
(-0.0372702 5.77894e-07 0.743727)
(-0.0345649 0.0126903 0.747285)
(-0.027177 0.0201889 0.757427)
(-0.0179437 0.0179451 0.770783)
(-0.0123624 0.00695978 0.778467)
(-0.0173251 -0.0115993 0.80376)
(-0.0310081 -0.0310089 0.794457)
(-0.0561542 -0.0347564 0.773433)
(-0.0745309 -0.0209185 0.760626)
(-0.0809025 6.42948e-07 0.756818)
(-0.0745309 0.0209197 0.760626)
(-0.0561543 0.0347574 0.773433)
(-0.0310081 0.0310096 0.794458)
(-0.017325 0.0115995 0.80376)
(-0.0171749 -0.0162623 0.840686)
(-0.0482712 -0.048272 0.841576)
(-0.120924 -0.0540191 0.821454)
(-0.16495 -0.0293037 0.819599)
(-0.178934 6.91373e-07 0.821133)
(-0.16495 0.029305 0.819599)
(-0.120924 0.0540202 0.821454)
(-0.0482712 0.0482727 0.841576)
(-0.0171748 0.0162625 0.840686)
(0.00498501 -0.0107093 0.874899)
(-0.0502401 -0.050241 0.930719)
(-0.283132 -0.0567341 1.01559)
(-0.378162 -0.0212391 1.0867)
(-0.405042 7.21027e-07 1.1126)
(-0.378162 0.0212405 1.0867)
(-0.283132 0.0567352 1.01559)
(-0.0502401 0.0502417 0.930719)
(0.00498511 0.0107095 0.874899)
(0.0832074 0.0395576 0.831915)
(0.092419 0.092418 0.961761)
(0.0426352 0.10196 1.21955)
(0.0493443 0.0677045 1.38559)
(0.0517918 7.21428e-07 1.44004)
(0.0493443 -0.0677031 1.38559)
(0.0426352 -0.101958 1.21955)
(0.0924191 -0.0924173 0.961761)
(0.0832075 -0.0395574 0.831915)
(0.193035 0.119136 0.612177)
(0.337392 0.337391 0.736921)
(0.789386 0.367097 0.983035)
(0.993973 0.199253 1.11911)
(1.05156 6.45553e-07 1.16096)
(0.993972 -0.199252 1.11911)
(0.789386 -0.367096 0.983034)
(0.337392 -0.33739 0.736921)
(0.193035 -0.119136 0.612177)
(0.258779 0.164302 0.224178)
(0.463276 0.463275 0.269343)
(1.07175 0.484152 0.350062)
(1.24932 0.245632 0.386398)
(1.29079 6.10449e-07 0.39644)
(1.24932 -0.245631 0.386398)
(1.07175 -0.484151 0.350062)
(0.463276 -0.463274 0.269343)
(0.258779 -0.164301 0.224178)
(0.173993 0.346551 0.0473028)
(0.125804 0.170639 0.0497296)
(0.101387 0.101387 0.0435334)
(0.0666429 0.0536972 0.0384965)
(0.0543023 -9.03693e-08 0.0366488)
(0.0666429 -0.0536974 0.0384965)
(0.101387 -0.101388 0.0435334)
(0.125804 -0.170639 0.0497295)
(0.173993 -0.346551 0.0473028)
(0.173383 0.443584 0.232656)
(0.114458 0.166869 0.158831)
(0.0901543 0.0901544 0.128282)
(0.0580346 0.0468125 0.110807)
(0.04714 -1.23931e-07 0.105016)
(0.0580346 -0.0468128 0.110807)
(0.0901543 -0.0901545 0.128282)
(0.114458 -0.166869 0.158831)
(0.173383 -0.443583 0.232656)
(0.080137 0.0352361 0.323949)
(0.0657046 0.0662641 0.22613)
(0.0533638 0.0533639 0.186881)
(0.0388086 0.0304314 0.164796)
(0.0332479 -1.83117e-07 0.157519)
(0.0388086 -0.0304317 0.164795)
(0.0533637 -0.0533641 0.186881)
(0.0657046 -0.0662642 0.22613)
(0.0801369 -0.0352361 0.323948)
(0.0385152 0.0136693 0.26306)
(0.0341863 0.0298012 0.233912)
(0.0288198 0.02882 0.211152)
(0.0230122 0.0174503 0.195654)
(0.0206614 -2.57062e-07 0.19018)
(0.0230122 -0.0174508 0.195654)
(0.0288198 -0.0288204 0.211152)
(0.0341863 -0.0298014 0.233912)
(0.0385153 -0.0136694 0.263059)
(0.0188147 0.0060885 0.243552)
(0.0173073 0.0143568 0.232803)
(0.0151055 0.0151058 0.220901)
(0.0128662 0.00945916 0.211808)
(0.0119426 -3.36947e-07 0.208441)
(0.0128662 -0.00945979 0.211808)
(0.0151056 -0.0151063 0.220901)
(0.0173074 -0.0143571 0.232803)
(0.0188148 -0.00608857 0.243551)
(0.00926451 0.00292083 0.235773)
(0.00869999 0.00715049 0.231136)
(0.0078244 0.00782471 0.225031)
(0.00697194 0.00499058 0.220059)
(0.00662027 -4.18695e-07 0.218167)
(0.00697199 -0.00499137 0.220059)
(0.00782449 -0.00782534 0.225031)
(0.00870011 -0.00715086 0.231136)
(0.00926463 -0.00292094 0.235773)
(0.00456462 0.0014512 0.232206)
(0.0043567 0.00361438 0.230018)
(0.00402859 0.00402896 0.226894)
(0.00371792 0.00259497 0.224258)
(0.00359048 -4.98446e-07 0.223238)
(0.00371799 -0.00259591 0.224258)
(0.00402871 -0.00402972 0.226894)
(0.00435686 -0.00361483 0.230018)
(0.00456478 -0.00145134 0.232206)
(0.0021941 0.000732973 0.230451)
(0.00214417 0.00183831 0.229378)
(0.00206403 0.00206445 0.22778)
(0.00198779 0.00133482 0.2264)
(0.00195639 -5.74023e-07 0.22586)
(0.00198787 -0.0013359 0.2264)
(0.00206417 -0.00206533 0.22778)
(0.00214437 -0.00183885 0.229377)
(0.00219429 -0.000733133 0.230451)
(0.000895082 0.000377394 0.229553)
(0.000957357 0.000943203 0.229035)
(0.00105145 0.00105192 0.228231)
(0.00113319 0.000674952 0.227508)
(0.00116552 -6.41876e-07 0.227218)
(0.00113329 -0.000676159 0.227508)
(0.00105162 -0.00105291 0.228231)
(0.000957584 -0.000943803 0.229035)
(0.000895306 -0.000377574 0.229552)
(-5.23819e-05 0.000215182 0.229059)
(0.000181209 0.000516333 0.228876)
(0.000537036 0.000537558 0.228518)
(0.000851684 0.000321734 0.228126)
(0.000977805 -7.00371e-07 0.227948)
(0.00085179 -0.000323051 0.228126)
(0.000537233 -0.000538634 0.228518)
(0.000181465 -0.000516991 0.228876)
(-5.21295e-05 -0.000215382 0.229059)
(-0.00127076 0.000194179 0.228719)
(-0.000645364 0.000402196 0.228883)
(0.000301019 0.000301577 0.228876)
(0.00114121 0.000104605 0.228614)
(0.00148249 -7.45926e-07 0.228432)
(0.00114133 -0.000106007 0.228614)
(0.000301237 -0.000302721 0.228875)
(-0.000645078 -0.000402896 0.228883)
(-0.00127047 -0.000194392 0.228719)
(-0.00374552 0.000378931 0.228359)
(-0.00213331 0.000672572 0.229227)
(0.000267724 0.000268303 0.229741)
(0.00240906 -0.000121631 0.229406)
(0.00330172 -7.77049e-07 0.229012)
(0.00240919 0.00012017 0.229406)
(0.000267963 -0.000269497 0.229741)
(-0.00213301 -0.000673304 0.229227)
(-0.00374521 -0.000379153 0.228359)
(-0.00967186 0.00106228 0.227922)
(-0.00551375 0.00178418 0.230634)
(0.000479994 0.000480573 0.232304)
(0.00585939 -0.000624114 0.231474)
(0.00821724 -7.90537e-07 0.230289)
(0.00585953 0.000622627 0.231474)
(0.000480246 -0.000481786 0.232304)
(-0.00551342 -0.00178492 0.230634)
(-0.00967153 -0.0010625 0.227922)
(-0.0243735 0.00309085 0.228086)
(-0.0135457 0.0050548 0.235555)
(0.0011079 0.00110845 0.239868)
(0.0143725 -0.00213663 0.237498)
(0.0207558 -7.86922e-07 0.233877)
(0.0143726 0.00213515 0.237498)
(0.00110816 -0.00110966 0.239868)
(-0.0135454 -0.00505553 0.235555)
(-0.0243731 -0.00309107 0.228086)
(-0.0604827 0.00853089 0.233403)
(-0.0319745 0.0135656 0.251428)
(0.00242379 0.00242428 0.260795)
(0.0339027 -0.00661493 0.254877)
(0.0517492 -7.66005e-07 0.24495)
(0.0339028 0.0066135 0.254877)
(0.00242406 -0.00242544 0.260795)
(-0.0319741 -0.0135663 0.251428)
(-0.0604823 -0.00853109 0.233403)
(-0.144136 0.0211154 0.264269)
(-0.0695964 0.032447 0.297366)
(0.00455715 0.00455754 0.312295)
(0.0732848 -0.0179819 0.301709)
(0.123985 -7.25696e-07 0.28109)
(0.0732849 0.0179806 0.301709)
(0.00455744 -0.00455864 0.312295)
(-0.069596 -0.0324477 0.297367)
(-0.144136 -0.0211156 0.264269)
(-0.300667 0.0416284 0.383527)
(-0.124883 0.0615916 0.405611)
(0.00676671 0.00676697 0.414823)
(0.130285 -0.0378201 0.407924)
(0.261742 -6.65974e-07 0.3934)
(0.130285 0.0378189 0.407924)
(0.006767 -0.00676797 0.414823)
(-0.124882 -0.0615922 0.405612)
(-0.300667 -0.0416286 0.383528)
(-0.31394 0.0431992 0.577039)
(-0.128926 0.0637428 0.55768)
(0.00687005 0.00687018 0.549574)
(0.13438 -0.0394053 0.555576)
(0.273519 -5.89061e-07 0.568274)
(0.134381 0.0394041 0.555576)
(0.00687034 -0.00687107 0.549575)
(-0.128926 -0.0637433 0.557681)
(-0.31394 -0.0431994 0.577039)
(-0.152111 0.02227 0.705579)
(-0.0730278 0.0341269 0.6714)
(0.00466225 0.00466221 0.65611)
(0.0767248 -0.0191203 0.666929)
(0.130769 -4.97229e-07 0.68835)
(0.0767249 0.0191193 0.666929)
(0.00466251 -0.00466298 0.65611)
(-0.0730274 -0.0341274 0.6714)
(-0.15211 -0.0222701 0.705579)
(-0.0641188 0.00902 0.739423)
(-0.0338525 0.0142741 0.720351)
(0.00239994 0.00239973 0.710429)
(0.0355977 -0.00716529 0.716571)
(0.0546111 -3.82725e-07 0.727068)
(0.0355979 0.00716457 0.716571)
(0.00240015 -0.00240033 0.71043)
(-0.0338522 -0.0142745 0.720351)
(-0.0641185 -0.00902017 0.739423)
(-0.0260723 0.00319768 0.745496)
(-0.014591 0.0051335 0.737413)
(0.000883061 0.000882666 0.732624)
(0.0148979 -0.00248119 0.734951)
(0.0216827 -2.54155e-07 0.738745)
(0.014898 0.00248071 0.734951)
(0.000883216 -0.000883067 0.732625)
(-0.0145908 -0.00513382 0.737413)
(-0.0260721 -0.00319783 0.745497)
(-0.010757 0.000936661 0.745999)
(-0.00636989 0.00140217 0.742813)
(-6.15013e-05 -6.20864e-05 0.740589)
(0.00560316 -0.00104445 0.741085)
(0.00809526 -1.20807e-07 0.742202)
(0.00560321 0.00104422 0.741086)
(-6.14095e-05 6.18999e-05 0.740589)
(-0.00636977 -0.00140235 0.742814)
(-0.0107568 -0.000936754 0.746)
(-0.00494967 1.18653e-05 0.746051)
(-0.00329837 -0.000276717 0.744545)
(-0.00084425 -0.000845017 0.743112)
(0.00134656 -0.000868295 0.742697)
(0.0022632 1.37236e-08 0.742815)
(0.00134657 0.000868325 0.742697)
(-0.000844217 0.000845049 0.743112)
(-0.00329832 0.000276686 0.744545)
(-0.00494956 -1.19117e-05 0.746052)
(-0.00320148 -0.00056969 0.74666)
(-0.00268582 -0.00153694 0.745342)
(-0.00190878 -0.00190971 0.7436)
(-0.00121503 -0.00134091 0.742354)
(-0.000930092 1.44532e-07 0.741951)
(-0.00121504 0.00134119 0.742354)
(-0.00190879 0.00190995 0.7436)
(-0.00268583 0.00153706 0.745342)
(-0.00320145 0.000569702 0.746661)
(-0.00350625 -0.00130657 0.748265)
(-0.00363328 -0.00333741 0.746195)
(-0.00383169 -0.00383276 0.743094)
(-0.00399622 -0.00251693 0.740503)
(-0.00405633 2.6598e-07 0.739522)
(-0.00399625 0.00251743 0.740503)
(-0.00383175 0.0038332 0.743095)
(-0.00363335 0.00333766 0.746195)
(-0.00350628 0.00130662 0.748265)
(-0.00533916 -0.00263983 0.751664)
(-0.00622523 -0.00670744 0.747716)
(-0.00759981 -0.00760098 0.74157)
(-0.00877344 -0.0049126 0.736396)
(-0.0092243 3.75097e-07 0.734429)
(-0.00877349 0.00491332 0.736396)
(-0.00759991 0.0076016 0.741571)
(-0.00622536 0.00670782 0.747716)
(-0.00533926 0.00263993 0.751665)
(-0.00879378 -0.00525509 0.758574)
(-0.011257 -0.0134314 0.750794)
(-0.015151 -0.0151522 0.738103)
(-0.018413 -0.00965834 0.727845)
(-0.0196474 4.68145e-07 0.724064)
(-0.018413 0.00965923 0.727845)
(-0.0151511 0.015153 0.738104)
(-0.0112571 0.0134319 0.750795)
(-0.00879392 0.00525522 0.758574)
(-0.0139279 -0.0104193 0.772495)
(-0.0201866 -0.0271777 0.757427)
(-0.030549 -0.0305503 0.729772)
(-0.0388671 -0.018952 0.709616)
(-0.0419193 5.46004e-07 0.702675)
(-0.0388672 0.0189531 0.709616)
(-0.0305491 0.0305512 0.729772)
(-0.0201869 0.0271783 0.757427)
(-0.0139281 0.0104194 0.772496)
(-0.0194394 -0.0203235 0.800189)
(-0.0347551 -0.0561551 0.773433)
(-0.0629622 -0.0629635 0.706442)
(-0.083699 -0.0367554 0.668119)
(-0.0909146 6.08208e-07 0.656566)
(-0.0836991 0.0367565 0.66812)
(-0.0629623 0.0629644 0.706442)
(-0.0347553 0.0561557 0.773433)
(-0.0194396 0.0203237 0.800189)
(-0.0191838 -0.0371756 0.852753)
(-0.0540178 -0.120925 0.821454)
(-0.135862 -0.135863 0.625775)
(-0.18605 -0.068828 0.562024)
(-0.202098 6.57834e-07 0.547024)
(-0.18605 0.0688293 0.562024)
(-0.135862 0.135864 0.625775)
(-0.054018 0.120926 0.821454)
(-0.019184 0.0371758 0.852753)
(0.00552967 -0.0516221 0.935779)
(-0.0567328 -0.283132 1.01559)
(-0.322392 -0.322393 0.281253)
(-0.434155 -0.115506 0.242484)
(-0.466225 6.93579e-07 0.234575)
(-0.434155 0.115508 0.242484)
(-0.322392 0.322395 0.281253)
(-0.056733 0.283133 1.01559)
(0.00552948 0.0516222 0.935779)
(0.0921743 0.042635 0.949395)
(0.101961 0.042635 1.21955)