/*--------------------------------*- C++ -*----------------------------------*\
  =========                 |
  \\      /  F ield         | OpenFOAM: The Open Source CFD Toolbox
   \\    /   O peration     | Website:  https://openfoam.org
    \\  /    A nd           | Version:  6
     \\/     M anipulation  |
\*---------------------------------------------------------------------------*/
FoamFile
{
    version     2.0;
    format      ascii;
    class       volScalarField;
    location    "0.7";
    object      alpha_air;
}
// * * * * * * * * * * * * * * * * * * * * * * * * * * * * * * * * * * * * * //

dimensions      [0 0 0 0 0 0 0];

internalField   nonuniform List<scalar> 
3029
(
1
1
0.999995
1.00004
0.999696
1.00004
0.999995
1
1
1
1
0.999996
1.00004
0.999657
1.00004
0.999996
1
1
1
1
0.999996
1.00005
0.999506
1.00005
0.999995
1
1
1
1.00001
0.999995
1.00005
0.999184
1.00005
0.999992
1
1
1.00001
1.00001
0.999989
1.00001
0.998575
1.00001
0.999984
1.00001
1
1
1.00001
0.999964
0.999865
0.997472
0.999861
0.999958
0.999999
1
0.999984
0.999978
0.999888
0.999473
0.995544
0.999468
0.99988
0.999969
0.999981
0.999917
0.999881
0.999676
0.998548
0.99229
0.998542
0.999667
0.999869
0.999912
0.999718
0.999603
0.999129
0.99658
0.987011
0.996574
0.999118
0.999589
0.999712
0.999184
0.99888
0.997811
0.992744
0.97878
0.992737
0.997798
0.998863
0.999177
0.997872
0.997161
0.994912
0.985861
0.966489
0.985853
0.994897
0.997142
0.997863
0.994965
0.993489
0.989138
0.974308
0.94876
0.9743
0.989122
0.993468
0.994954
0.989217
0.986438
0.978742
0.956649
0.924992
0.956642
0.978726
0.986416
0.989204
0.979135
0.974468
0.961537
0.927695
0.888012
0.927688
0.96152
0.974444
0.979121
0.963368
0.955096
0.933621
0.89915
0.869428
0.899144
0.933605
0.955071
0.963352
0.941348
0.931635
0.905726
0.77371
0.526703
0.773707
0.905712
0.931611
0.941331
0.916589
0.89889
0.756285
0.377396
0.20424
0.377396
0.756276
0.898866
0.916569
0.88902
0.844962
0.575678
0.183882
0.125844
0.183883
0.575673
0.844942
0.889
0.856682
0.78818
0.468227
0.120871
0.101063
0.120872
0.468225
0.788162
0.856661
0.819969
0.736728
0.409939
0.100568
0.0896366
0.100569
0.409937
0.736711
0.819949
0.779922
0.689827
0.374363
0.0932321
0.0814682
0.0932334
0.374362
0.689812
0.779902
0.737376
0.645198
0.347747
0.089547
0.0744027
0.0895483
0.347746
0.645184
0.737357
0.692994
0.601422
0.324261
0.0866024
0.0680248
0.0866037
0.32426
0.601409
0.692976
0.647401
0.557978
0.301736
0.0835324
0.0622105
0.0835336
0.301735
0.557967
0.647384
0.601245
0.514871
0.279444
0.0801068
0.0569035
0.0801078
0.279443
0.51486
0.601229
0.555202
0.472343
0.257225
0.0763091
0.0520757
0.07631
0.257224
0.472334
0.555187
0.509965
0.430738
0.235158
0.0722417
0.0477386
0.0722425
0.235157
0.43073
0.509951
0.466218
0.390479
0.213559
0.0681839
0.0440234
0.0681845
0.213558
0.390472
0.466205
0.424581
0.352139
0.193028
0.0646714
0.0412655
0.064672
0.193027
0.352133
0.42457
0.385516
0.31671
0.175601
0.0633478
0.0407353
0.0633482
0.1756
0.316706
0.385506
0.349451
0.286188
0.161939
0.0651694
0.0436071
0.0651698
0.161939
0.286184
0.349442
0.315588
0.263383
0.154695
0.0637652
0.0413147
0.0637655
0.154694
0.26338
0.31558
0.279531
0.247071
0.160767
0.0652365
0.0343179
0.0652366
0.160766
0.247068
0.279524
0.208024
0.200461
0.159452
0.078717
0.031328
0.0787166
0.15945
0.200457
0.208018
1
1.00001
1
1.00001
0.999325
1.00001
1
1.00001
1
1
1.00001
1
1.00001
0.999232
1.00001
0.999999
1.00001
1
1
1.00001
0.999998
1
0.998947
0.999999
0.999995
1.00001
1
1.00001
1.00002
0.999988
0.999962
0.998327
0.999958
0.999983
1.00001
1
1.00001
1.00002
0.999961
0.99981
0.997123
0.999805
0.999954
1.00001
1
1.00001
1
0.999889
0.999375
0.994951
0.999369
0.99988
0.999995
0.999998
0.999978
0.999942
0.999695
0.998335
0.991277
0.998328
0.999685
0.999929
0.999967
0.99988
0.999754
0.999193
0.996156
0.985403
0.996149
0.999181
0.999738
0.999867
0.999602
0.99926
0.997993
0.992038
0.976474
0.99203
0.997979
0.999241
0.999586
0.998879
0.998069
0.995388
0.984897
0.963513
0.984888
0.995372
0.998048
0.99886
0.99716
0.995444
0.990284
0.973432
0.945505
0.973423
0.990267
0.995421
0.997138
0.993488
0.990227
0.981205
0.9562
0.921468
0.956191
0.981187
0.990202
0.993464
0.986437
0.980852
0.966414
0.931962
0.891098
0.931953
0.966394
0.980825
0.986411
0.974466
0.965628
0.944308
0.899186
0.851931
0.899178
0.944288
0.965599
0.974439
0.955094
0.942882
0.912529
0.858633
0.818007
0.858626
0.91251
0.942853
0.955066
0.931634
0.912689
0.876688
0.813943
0.726655
0.813938
0.876671
0.91266
0.931604
0.898887
0.878382
0.816047
0.625522
0.409531
0.62552
0.816032
0.878354
0.898858
0.844959
0.838108
0.728058
0.433222
0.22938
0.433222
0.728047
0.838082
0.844932
0.788177
0.793279
0.651787
0.332588
0.167785
0.332589
0.651779
0.793255
0.788151
0.736725
0.746657
0.592672
0.2833
0.145949
0.283301
0.592665
0.746635
0.7367
0.689825
0.699491
0.544243
0.255379
0.135909
0.255381
0.544236
0.699471
0.689802
0.645197
0.652146
0.501128
0.235361
0.128969
0.235363
0.501123
0.652128
0.645175
0.60142
0.604835
0.460651
0.21808
0.122528
0.218081
0.460646
0.604818
0.6014
0.557977
0.557839
0.421769
0.20185
0.116009
0.201851
0.421764
0.557824
0.557959
0.51487
0.511493
0.384217
0.186214
0.109413
0.186215
0.384213
0.511479
0.514853
0.472342
0.466123
0.347993
0.171192
0.102949
0.171193
0.34799
0.466111
0.472327
0.430738
0.421977
0.313134
0.15705
0.0970336
0.157051
0.313131
0.421968
0.430725
0.390479
0.379239
0.279768
0.144375
0.092434
0.144375
0.279766
0.379231
0.390467
0.352139
0.337747
0.247436
0.133771
0.0900849
0.133772
0.247435
0.337741
0.352129
0.316711
0.298851
0.219831
0.128755
0.0933671
0.128756
0.21983
0.298846
0.316703
0.286188
0.259652
0.176034
0.113895
0.0900009
0.113895
0.176034
0.259649
0.286181
0.263384
0.237228
0.159107
0.105525
0.0852884
0.105526
0.159108
0.237225
0.263377
0.247072
0.234274
0.166018
0.0895791
0.0633309
0.0895798
0.166018
0.234271
0.247066
0.200461
0.203123
0.16899
0.086198
0.0379016
0.0861978
0.168989
0.20312
0.200456
0.999995
1
0.999891
1.00035
0.998056
1.00035
0.999888
1
0.999995
0.999996
1
0.999892
1.00029
0.997414
1.00029
0.999888
0.999999
0.999995
0.999996
0.999998
0.999893
1.00009
0.99582
1.00008
0.999888
0.999994
0.999994
0.999994
0.999987
0.999885
0.999522
0.992852
0.999516
0.999879
0.999981
0.99999
0.999988
0.999959
0.999813
0.998228
0.987989
0.998222
0.999804
0.999951
0.999981
0.999962
0.999887
0.999526
0.995666
0.98062
0.995659
0.999516
0.999876
0.999954
0.999885
0.999693
0.99872
0.991108
0.970069
0.991101
0.998709
0.99968
0.999874
0.999673
0.99919
0.99686
0.983643
0.955628
0.983635
0.996847
0.999175
0.999659
0.999126
0.99799
0.993117
0.972231
0.936601
0.972223
0.993102
0.997972
0.99911
0.997807
0.995384
0.986359
0.955792
0.91237
0.955784
0.986343
0.995364
0.997788
0.994907
0.99028
0.975222
0.933346
0.882492
0.933338
0.975206
0.990258
0.994886
0.989133
0.981201
0.958272
0.904198
0.846828
0.904191
0.958256
0.981177
0.98911
0.978737
0.966409
0.934253
0.868136
0.805795
0.86813
0.934237
0.966384
0.978713
0.961531
0.944303
0.902495
0.825956
0.760878
0.825951
0.902479
0.944278
0.961505
0.933615
0.912523
0.863135
0.778699
0.713696
0.778695
0.863119
0.912498
0.933589
0.905719
0.876683
0.818825
0.735885
0.685499
0.735882
0.81881
0.876658
0.905693
0.756279
0.816041
0.773806
0.686817
0.60598
0.686814
0.773793
0.816018
0.756257
0.575673
0.728053
0.727065
0.61769
0.494465
0.617688
0.727052
0.728032
0.575656
0.468223
0.651783
0.679243
0.554034
0.419463
0.554033
0.679231
0.651764
0.46821
0.409936
0.592668
0.631489
0.501524
0.371917
0.501524
0.631479
0.592651
0.409923
0.374361
0.544239
0.584206
0.45663
0.337498
0.45663
0.584197
0.544223
0.374349
0.347745
0.501126
0.537614
0.416071
0.308669
0.416071
0.537607
0.501111
0.347734
0.32426
0.460649
0.491979
0.378245
0.282383
0.378245
0.491972
0.460635
0.324249
0.301735
0.421768
0.447593
0.342422
0.257509
0.342422
0.447588
0.421755
0.301726
0.279444
0.384216
0.404699
0.308422
0.233771
0.308423
0.404694
0.384205
0.279435
0.257225
0.347993
0.363399
0.276206
0.211216
0.276207
0.363395
0.347983
0.257217
0.235158
0.313135
0.323563
0.245666
0.189956
0.245666
0.32356
0.313126
0.235151
0.21356
0.279769
0.284732
0.216507
0.170066
0.216508
0.28473
0.279761
0.213553
0.193029
0.247438
0.24523
0.187759
0.151183
0.18776
0.245229
0.247431
0.193023
0.175603
0.219833
0.204419
0.157917
0.132545
0.157918
0.204419
0.219828
0.175598
0.161941
0.176035
0.119264
0.0991873
0.0896884
0.0991885
0.119266
0.176032
0.161937
0.154697
0.159108
0.159107
0.154693
0.160768
0.166019
0.166151
0.110971
0.0720747
0.110972
0.16615
0.166017
0.160764
0.159453
0.168991
0.169919
0.107086
0.0558442
0.107086
0.169917
0.168988
0.159449
0.167375
0.106999
0.052589
0.106999
0.167373
0.161836
0.104865
0.0513659
0.104866
0.161835
0.155322
0.101405
0.0500884
0.101405
0.15532
0.148601
0.0974615
0.0486679
0.0974619
0.1486
0.141972
0.0934258
0.0471771
0.0934263
0.141971
0.135532
0.089447
0.0456701
0.0894476
0.135531
0.129312
0.0855763
0.0441701
0.0855769
0.129311
0.123314
0.0818266
0.0426858
0.0818272
0.123314
0.11756
0.0782155
0.0412278
0.0782162
0.11756
0.111915
0.0746586
0.0397592
0.0746593
0.111914
0.107052
0.0715888
0.0384796
0.0715896
0.107052
0.0992045
0.0665693
0.036263
0.0665701
0.0992046
1.00004
1.00001
1.00035
0.992393
0.959482
0.992388
1.00035
1
1.00004
1.00004
1.00001
1.00029
0.991204
0.9563
0.991198
1.00029
1
1.00004
1.00005
0.999999
1.00009
0.988382
0.949496
0.988376
1.00008
0.999993
1.00004
1.00005
0.999958
0.999519
0.983441
0.938857
0.983434
0.999511
0.999951
1.00004
1.00001
0.999805
0.998224
0.975803
0.924274
0.975796
0.998215
0.999796
0.999998
0.99986
0.999369
0.995662
0.964807
0.905622
0.964801
0.995652
0.999358
0.999851
0.999467
0.998328
0.991103
0.949773
0.882775
0.949766
0.991092
0.998315
0.999456
0.998541
0.996148
0.983638
0.930054
0.855619
0.930048
0.983626
0.996134
0.998528
0.996572
0.992029
0.972226
0.905114
0.824103
0.905109
0.972213
0.992013
0.996557
0.992735
0.984888
0.955786
0.874602
0.788282
0.874598
0.955773
0.98487
0.992718
0.985852
0.973422
0.93334
0.838438
0.748389
0.838435
0.933328
0.973403
0.985833
0.974298
0.95619
0.904192
0.796923
0.704924
0.79692
0.90418
0.95617
0.974278
0.956639
0.931952
0.868131
0.750881
0.658775
0.75088
0.868119
0.931931
0.956618
0.927685
0.899175
0.825951
0.701961
0.611564
0.70196
0.82594
0.899155
0.927663
0.899139
0.858623
0.778694
0.652731
0.565317
0.65273
0.778684
0.858603
0.899117
0.7737
0.813933
0.73588
0.607084
0.525608
0.607084
0.735871
0.813914
0.773681
0.377392
0.625514
0.686811
0.571838
0.498079
0.571838
0.686801
0.625499
0.377382
0.18388
0.433217
0.617684
0.540807
0.469179
0.540808
0.617675
0.433206
0.183874
0.12087
0.332585
0.55403
0.50689
0.436143
0.50689
0.554021
0.332576
0.120866
0.100567
0.283297
0.50152
0.470241
0.402069
0.470242
0.501512
0.283289
0.100564
0.0932317
0.255377
0.456627
0.432595
0.368566
0.432595
0.456619
0.25537
0.093228
0.0895467
0.23536
0.416069
0.395253
0.33622
0.395254
0.416062
0.235354
0.0895431
0.0866022
0.218079
0.378243
0.358952
0.305258
0.358953
0.378237
0.218073
0.0865987
0.0835324
0.20185
0.342421
0.324152
0.275817
0.324153
0.342415
0.201844
0.083529
0.0801069
0.186214
0.308421
0.291018
0.247931
0.29102
0.308416
0.186209
0.0801037
0.0763095
0.171193
0.276206
0.259531
0.221548
0.259532
0.276201
0.171188
0.0763063
0.0722422
0.157051
0.245666
0.229451
0.196473
0.229453
0.245662
0.157047
0.0722392
0.0681846
0.144376
0.216508
0.200177
0.172244
0.200179
0.216505
0.144372
0.0681818
0.0646723
0.133773
0.18776
0.170343
0.147793
0.170344
0.187758
0.133769
0.0646697
0.0633488
0.128757
0.157917
0.136597
0.12042
0.136599
0.157917
0.128754
0.0633463
0.0651705
0.113896
0.0991874
0.0832433
0.076252
0.0832446
0.0991886
0.113895
0.0651684
0.0637664
0.105526
0.105525
0.0637645
0.0652379
0.0895803
0.110972
0.1097
0.0797807
0.109701
0.110972
0.0895794
0.0652358
0.0787184
0.0861995
0.107087
0.108047
0.075494
0.108048
0.107086
0.0861974
0.0787163
0.107
0.104411
0.0720736
0.104411
0.106999
0.104867
0.100251
0.0691873
0.100252
0.104866
0.101406
0.0959455
0.0664251
0.0959463
0.101405
0.0974625
0.0916683
0.0637301
0.0916692
0.0974617
0.0934267
0.0875025
0.0611034
0.0875035
0.0934261
0.0894479
0.0834783
0.0585526
0.0834793
0.0894474
0.0855772
0.0796046
0.0560812
0.0796056
0.0855767
0.0818274
0.075879
0.0536882
0.07588
0.081827
0.0782163
0.072312
0.0513818
0.072313
0.078216
0.0746593
0.0688209
0.0491084
0.0688219
0.0746591
0.0715894
0.0658123
0.0471387
0.0658133
0.0715893
0.0665699
0.060959
0.0439139
0.0609599
0.0665698
0.999694
0.99932
0.998049
0.959477
0.86795
0.959473
0.998044
0.999317
0.999694
0.999654
0.999226
0.997407
0.956295
0.862866
0.956291
0.997401
0.999222
0.999652
0.999501
0.99894
0.995812
0.949491
0.852716
0.949486
0.995805
0.998934
0.999497
0.999179
0.998319
0.992843
0.938852
0.837887
0.938848
0.992836
0.998311
0.999173
0.998568
0.997113
0.98798
0.924269
0.818928
0.924265
0.987972
0.997104
0.998561
0.997464
0.99494
0.98061
0.905618
0.796264
0.905614
0.980601
0.99493
0.997455
0.995534
0.991265
0.970059
0.88277
0.770174
0.882767
0.97005
0.991254
0.995524
0.992279
0.98539
0.955618
0.855615
0.740823
0.855613
0.955608
0.985377
0.992268
0.986999
0.97646
0.936591
0.824099
0.708337
0.824098
0.936582
0.976446
0.986986
0.978767
0.963499
0.912361
0.788279
0.672876
0.788278
0.912351
0.963485
0.978753
0.966476
0.945491
0.882483
0.748387
0.634701
0.748386
0.882474
0.945476
0.96646
0.948746
0.921454
0.846819
0.704922
0.594243
0.704922
0.846811
0.921438
0.94873
0.924978
0.891084
0.805786
0.658774
0.552189
0.658775
0.805779
0.891068
0.924961
0.887999
0.851918
0.76087
0.611563
0.509618
0.611564
0.760863
0.851903
0.887982
0.869415
0.817994
0.713689
0.565316
0.468127
0.565318
0.713682
0.817979
0.869397
0.526696
0.726644
0.685492
0.525607
0.429549
0.525609
0.685484
0.726629
0.526683
0.204238
0.409526
0.605973
0.498077
0.398015
0.498079
0.605965
0.409516
0.204232
0.125843
0.229377
0.49446
0.469177
0.372832
0.469178
0.494452
0.229371
0.125839
0.101062
0.167783
0.419459
0.436141
0.349103
0.436142
0.419452
0.167778
0.101058
0.0896363
0.145948
0.371913
0.402067
0.324998
0.402068
0.371907
0.145942
0.0896325
0.081468
0.135908
0.337495
0.368565
0.300598
0.368566
0.337489
0.135903
0.0814644
0.0744025
0.128968
0.308667
0.336219
0.276376
0.33622
0.308662
0.128963
0.0743991
0.0680246
0.122527
0.282381
0.305257
0.252682
0.305258
0.282377
0.122522
0.0680214
0.0622104
0.116009
0.257508
0.275816
0.229833
0.275817
0.257504
0.116004
0.0622073
0.0569034
0.109413
0.23377
0.247931
0.207952
0.247932
0.233767
0.109409
0.0569005
0.0520756
0.102949
0.211215
0.221548
0.187049
0.221549
0.211213
0.102945
0.0520728
0.0477386
0.0970338
0.189955
0.196472
0.16702
0.196474
0.189953
0.0970306
0.047736
0.0440235
0.0924344
0.170066
0.172243
0.147553
0.172245
0.170064
0.0924316
0.0440211
0.0412656
0.0900854
0.151183
0.147793
0.127864
0.147794
0.151182
0.090083
0.0412633
0.0407355
0.0933678
0.132546
0.12042
0.105957
0.120421
0.132546
0.0933659
0.0407334
0.0436075
0.0900014
0.0896884
0.0762519
0.0699786
0.0762528
0.0896895
0.0900009
0.0436057
0.041315
0.0852888
0.0852889
0.0413135
0.0343183
0.0633314
0.0720752
0.0797811
0.0722835
0.0797817
0.0720753
0.063331
0.0343168
0.0313284
0.037902
0.0558447
0.0754944
0.0717083
0.0754949
0.0558444
0.037901
0.0313272
0.0525894
0.072074
0.0694985
0.0720742
0.0525892
0.0513664
0.0691877
0.0667588
0.0691871
0.0513659
0.0500888
0.0664255
0.0639078
0.0664245
0.050088
0.0486683
0.0637305
0.061095
0.0637292
0.0486673
0.0471776
0.0611038
0.0583668
0.0611023
0.0471764
0.0456705
0.0585529
0.0557366
0.0585512
0.0456692
0.0441706
0.0560815
0.0532068
0.0560795
0.0441691
0.0426861
0.0536885
0.0507746
0.0536863
0.0426846
0.0412282
0.051382
0.0484454
0.0513797
0.0412265
0.0397596
0.0491087
0.0461672
0.0491061
0.0397578
0.0384799
0.0471389
0.0441955
0.0471362
0.038478
0.0362633
0.0439141
0.0410267
0.0439112
0.0362613
1.00004
1
1.00034
0.992382
0.959471
0.99238
1.00034
1
1.00004
1.00004
1
1.00028
0.991192
0.956289
0.99119
1.00028
1
1.00004
1.00005
0.999993
1.00008
0.98837
0.949484
0.988367
1.00007
0.999991
1.00004
1.00004
0.999951
0.999508
0.983428
0.938846
0.983425
0.999505
0.999947
1.00004
1
0.999797
0.998213
0.97579
0.924263
0.975787
0.998208
0.999792
0.999996
0.999853
0.999359
0.99565
0.964794
0.905612
0.964792
0.995645
0.999353
0.999849
0.999459
0.998317
0.99109
0.94976
0.882766
0.949757
0.991084
0.99831
0.999453
0.998532
0.996136
0.983624
0.930042
0.855612
0.93004
0.983618
0.996128
0.998525
0.996562
0.992016
0.972212
0.905104
0.824097
0.905102
0.972205
0.992007
0.996554
0.992724
0.984874
0.955773
0.874593
0.788277
0.874592
0.955766
0.984864
0.992715
0.98584
0.973408
0.933328
0.838431
0.748386
0.83843
0.933321
0.973397
0.98583
0.974287
0.956177
0.904181
0.796917
0.704922
0.796916
0.904174
0.956165
0.974275
0.956628
0.931939
0.868121
0.750877
0.658775
0.750877
0.868115
0.931927
0.956615
0.927674
0.899164
0.825943
0.701958
0.611565
0.701959
0.825937
0.899152
0.927661
0.89913
0.858614
0.778687
0.652729
0.565318
0.65273
0.778682
0.858601
0.899116
0.773696
0.813926
0.735875
0.607083
0.525609
0.607084
0.735869
0.813913
0.773682
0.377391
0.625511
0.686807
0.571837
0.498079
0.571838
0.686801
0.6255
0.377383
0.183881
0.433217
0.617682
0.540806
0.469178
0.540808
0.617675
0.433207
0.183875
0.120871
0.332585
0.554028
0.506889
0.436142
0.50689
0.554021
0.332577
0.120867
0.100569
0.283298
0.501519
0.470241
0.402068
0.470242
0.501513
0.28329
0.100564
0.0932328
0.255378
0.456626
0.432595
0.368566
0.432596
0.45662
0.255371
0.0932287
0.0895476
0.23536
0.416068
0.395253
0.33622
0.395255
0.416063
0.235354
0.0895437
0.086603
0.218079
0.378243
0.358953
0.305258
0.358954
0.378239
0.218073
0.0865992
0.0835329
0.201849
0.34242
0.324153
0.275817
0.324154
0.342417
0.201844
0.0835292
0.0801072
0.186214
0.308421
0.291019
0.247932
0.29102
0.308418
0.186209
0.0801037
0.0763094
0.171192
0.276205
0.259532
0.221549
0.259533
0.276203
0.171187
0.0763061
0.0722419
0.15705
0.245666
0.229453
0.196474
0.229454
0.245664
0.157046
0.0722388
0.0681841
0.144375
0.216508
0.200179
0.172245
0.20018
0.216506
0.144371
0.0681812
0.0646716
0.133772
0.18776
0.170344
0.147794
0.170345
0.187759
0.133769
0.0646689
0.0633479
0.128756
0.157918
0.136599
0.120421
0.1366
0.157918
0.128754
0.0633455
0.0651695
0.113895
0.0991884
0.0832444
0.0762528
0.083245
0.0991893
0.113895
0.0651675
0.0637653
0.105526
0.105526
0.0637636
0.0652363
0.0895798
0.110972
0.109701
0.0797822
0.109701
0.110972
0.0895791
0.0652346
0.0787165
0.0861978
0.107086
0.108048
0.0754955
0.108047
0.107085
0.0861963
0.0787149
0.107
0.104412
0.0720747
0.10441
0.106998
0.104866
0.100252
0.0691876
0.100249
0.104864
0.101406
0.0959466
0.066425
0.0959416
0.101404
0.0974623
0.0916695
0.0637297
0.0916639
0.09746
0.0934266
0.0875038
0.0611027
0.0874978
0.0934243
0.0894479
0.0834796
0.0585516
0.0834734
0.0894455
0.0855772
0.0796059
0.0560799
0.0795997
0.0855748
0.0818275
0.0758803
0.0536867
0.0758741
0.0818251
0.0782165
0.0723132
0.05138
0.072307
0.0782141
0.0746596
0.0688222
0.0491065
0.0688159
0.0746571
0.0715899
0.0658135
0.0471366
0.0658073
0.0715873
0.0665704
0.0609601
0.0439115
0.0609539
0.0665678
0.999994
0.999998
0.999885
1.00034
0.998042
1.00034
0.999884
0.999998
0.999995
0.999995
0.999997
0.999885
1.00028
0.997399
1.00028
0.999884
0.999996
0.999995
0.999993
0.999992
0.999884
1.00008
0.995803
1.00007
0.999883
0.999991
0.999993
0.99999
0.999979
0.999874
0.999506
0.992833
0.999504
0.999872
0.999977
0.999988
0.999981
0.999948
0.999799
0.99821
0.987969
0.998208
0.999796
0.999946
0.999979
0.999953
0.999873
0.999509
0.995646
0.980599
0.995644
0.999506
0.99987
0.99995
0.999873
0.999677
0.998701
0.991086
0.970047
0.991084
0.998698
0.999672
0.99987
0.999659
0.999171
0.996839
0.98362
0.955606
0.983618
0.996834
0.999166
0.999654
0.999109
0.997968
0.993094
0.972207
0.93658
0.972205
0.993089
0.997962
0.999104
0.997788
0.995361
0.986334
0.955768
0.912349
0.955765
0.986329
0.995353
0.997782
0.994887
0.990255
0.975196
0.933323
0.882472
0.933321
0.975191
0.990247
0.994879
0.989111
0.981175
0.958247
0.904175
0.846809
0.904173
0.958241
0.981166
0.989102
0.978714
0.966382
0.934228
0.868115
0.805778
0.868114
0.934223
0.966373
0.978705
0.961508
0.944277
0.902471
0.825937
0.760862
0.825936
0.902465
0.944267
0.961498
0.933593
0.912498
0.863112
0.778682
0.713682
0.778681
0.863107
0.912489
0.933582
0.9057
0.87666
0.818804
0.735869
0.685484
0.735869
0.818799
0.87665
0.905688
0.756267
0.816023
0.773787
0.6868
0.605966
0.686801
0.773783
0.816012
0.756255
0.575666
0.728039
0.727048
0.617674
0.494453
0.617675
0.727043
0.728028
0.575656
0.468219
0.651772
0.679227
0.554021
0.419452
0.554022
0.679224
0.651762
0.46821
0.409932
0.592658
0.631476
0.501512
0.371908
0.501514
0.631472
0.592649
0.409924
0.374357
0.544231
0.584194
0.456619
0.33749
0.456621
0.584191
0.544222
0.37435
0.347742
0.501118
0.537604
0.416062
0.308663
0.416064
0.537602
0.50111
0.347734
0.324256
0.460642
0.49197
0.378237
0.282378
0.37824
0.491968
0.460635
0.324249
0.301732
0.421761
0.447586
0.342415
0.257506
0.342418
0.447584
0.421755
0.301725
0.27944
0.384211
0.404693
0.308417
0.233768
0.30842
0.404691
0.384205
0.279434
0.257221
0.347988
0.363395
0.276202
0.211214
0.276205
0.363393
0.347983
0.257216
0.235155
0.313131
0.32356
0.245663
0.189954
0.245665
0.323558
0.313126
0.23515
0.213556
0.279765
0.28473
0.216505
0.170065
0.216508
0.284729
0.279761
0.213552
0.193026
0.247435
0.245229
0.187758
0.151183
0.18776
0.245228
0.247431
0.193022
0.1756
0.219831
0.204419
0.157917
0.132546
0.157919
0.204419
0.219828
0.175596
0.161938
0.176034
0.119266
0.0991886
0.0896897
0.0991895
0.119267
0.176032
0.161935
0.154694
0.159108
0.159107
0.154691
0.160766
0.166019
0.166151
0.110972
0.072076
0.110973
0.16615
0.166017
0.160763
0.159451
0.16899
0.169918
0.107086
0.0558451
0.107086
0.169917
0.168987
0.159449
0.167375
0.107
0.0525898
0.106999
0.167373
0.161836
0.104866
0.0513665
0.104865
0.161834
0.155322
0.101406
0.0500886
0.101405
0.15532
0.148601
0.0974621
0.0486679
0.097461
0.148599
0.141972
0.0934264
0.0471769
0.0934252
0.14197
0.135532
0.0894477
0.0456697
0.0894464
0.13553
0.129312
0.0855771
0.0441696
0.0855757
0.12931
0.123315
0.0818274
0.0426851
0.0818259
0.123313
0.11756
0.0782163
0.041227
0.0782148
0.117559
0.111915
0.0746594
0.0397583
0.0746578
0.111913
0.107053
0.0715896
0.0384785
0.071588
0.107051
0.0992053
0.0665701
0.0362617
0.0665684
0.0992033
1
1.00001
0.999998
1
0.999315
1
0.999998
1
1
1
1.00001
0.999997
1
0.99922
1
0.999996
1
1
1
1.00001
0.999992
0.999991
0.998933
0.999991
0.999991
1.00001
1
1
1.00001
0.999978
0.999948
0.99831
0.999947
0.999977
1.00001
1
1
1.00001
0.999947
0.999793
0.997103
0.999792
0.999946
1.00001
1
0.999995
0.99999
0.999872
0.999354
0.994928
0.999353
0.999869
0.999987
0.999993
0.999964
0.999923
0.999675
0.998311
0.991252
0.99831
0.999672
0.99992
0.999961
0.999863
0.999731
0.999169
0.99613
0.985375
0.996128
0.999166
0.999727
0.999859
0.999582
0.999234
0.997965
0.992009
0.976444
0.992007
0.997962
0.999229
0.999577
0.998855
0.998039
0.995357
0.984866
0.963483
0.984864
0.995353
0.998034
0.99885
0.997134
0.995412
0.990251
0.973399
0.945474
0.973397
0.990247
0.995406
0.997128
0.993459
0.990193
0.98117
0.956166
0.921437
0.956164
0.981166
0.990186
0.993453
0.986406
0.980815
0.966378
0.931928
0.891067
0.931927
0.966373
0.980808
0.986399
0.974435
0.96559
0.944272
0.899152
0.851902
0.899151
0.944267
0.965583
0.974427
0.955062
0.942844
0.912493
0.858602
0.817979
0.858601
0.912489
0.942836
0.955054
0.931602
0.912652
0.876654
0.813913
0.726629
0.813913
0.87665
0.912644
0.931593
0.898858
0.878347
0.816015
0.625499
0.409517
0.6255
0.816013
0.878339
0.898848
0.844934
0.838076
0.72803
0.433207
0.229372
0.433208
0.728029
0.838068
0.844924
0.788154
0.793249
0.651763
0.332577
0.167779
0.332578
0.651762
0.793243
0.788145
0.736704
0.74663
0.59265
0.283291
0.145944
0.283292
0.59265
0.746624
0.736695
0.689806
0.699467
0.544223
0.255371
0.135904
0.255372
0.544223
0.699461
0.689797
0.64518
0.652125
0.501111
0.235355
0.128964
0.235355
0.501112
0.652119
0.645171
0.601405
0.604816
0.460635
0.218074
0.122524
0.218075
0.460636
0.604811
0.601397
0.557963
0.557822
0.421755
0.201845
0.116005
0.201846
0.421756
0.557817
0.557956
0.514858
0.511479
0.384205
0.18621
0.10941
0.186211
0.384206
0.511474
0.514851
0.472332
0.466111
0.347983
0.171189
0.102946
0.17119
0.347985
0.466107
0.472326
0.430729
0.421968
0.313126
0.157047
0.0970318
0.157048
0.313128
0.421964
0.430723
0.390472
0.379232
0.279762
0.144373
0.0924328
0.144374
0.279763
0.379229
0.390466
0.352134
0.337742
0.247432
0.13377
0.0900842
0.133771
0.247433
0.337739
0.352129
0.316706
0.298847
0.219828
0.128755
0.0933672
0.128756
0.21983
0.298845
0.316702
0.286185
0.25965
0.176033
0.113895
0.0900017
0.113896
0.176034
0.259648
0.286181
0.263381
0.237227
0.159107
0.105526
0.0852896
0.105527
0.159108
0.237225
0.263377
0.247069
0.234272
0.166018
0.0895795
0.0633317
0.0895805
0.166018
0.23427
0.247066
0.200459
0.203121
0.168989
0.0861975
0.0379016
0.0861978
0.168989
0.20312
0.200457
1
1
0.999995
1.00004
0.999693
1.00004
0.999995
1
1
1
1
0.999995
1.00004
0.999651
1.00004
0.999995
1
1
1
1
0.999993
1.00004
0.999497
1.00004
0.999993
1
1
1
1
0.999989
1.00004
0.999172
1.00004
0.999988
1
1
1
1
0.99998
0.999997
0.99856
0.999996
0.999979
1
1
0.999998
0.999995
0.999951
0.999849
0.997454
0.999848
0.99995
0.999993
0.999995
0.999978
0.999963
0.999871
0.999454
0.995523
0.999453
0.99987
0.999961
0.999974
0.999908
0.999862
0.999656
0.998525
0.992266
0.998524
0.999654
0.999859
0.999903
0.999707
0.999581
0.999106
0.996555
0.986985
0.996554
0.999104
0.999577
0.999701
0.999172
0.998854
0.997784
0.992716
0.978752
0.992714
0.997782
0.99885
0.999165
0.997857
0.997133
0.994882
0.985831
0.966459
0.985829
0.994879
0.997128
0.99785
0.994948
0.993458
0.989106
0.974276
0.948729
0.974275
0.989103
0.993453
0.994939
0.989198
0.986405
0.978709
0.956616
0.924961
0.956615
0.978705
0.986399
0.989189
0.979114
0.974433
0.961501
0.927661
0.887981
0.927661
0.961498
0.974427
0.979105
0.963345
0.95506
0.933586
0.899116
0.869397
0.899116
0.933583
0.955054
0.963336
0.941324
0.931599
0.905691
0.773681
0.526684
0.773682
0.905689
0.931593
0.941314
0.916564
0.898854
0.756256
0.377383
0.204233
0.377384
0.756256
0.898848
0.916554
0.888994
0.844929
0.575656
0.183876
0.12584
0.183877
0.575657
0.844924
0.888985
0.856656
0.788149
0.46821
0.120867
0.101059
0.120868
0.468211
0.788145
0.856647
0.819944
0.736699
0.409924
0.100565
0.0896337
0.100566
0.409925
0.736695
0.819936
0.779899
0.6898
0.37435
0.0932291
0.0814655
0.09323
0.374351
0.689798
0.779891
0.737354
0.645174
0.347735
0.089544
0.0744001
0.0895449
0.347736
0.645172
0.737346
0.692973
0.6014
0.32425
0.0865995
0.0680223
0.0866004
0.324251
0.601398
0.692966
0.647382
0.557958
0.301726
0.0835296
0.0622081
0.0835304
0.301727
0.557957
0.647376
0.601228
0.514854
0.279435
0.0801042
0.0569013
0.0801049
0.279436
0.514852
0.601222
0.555187
0.472328
0.257217
0.0763067
0.0520736
0.0763074
0.257218
0.472327
0.555181
0.509951
0.430725
0.235151
0.0722395
0.0477367
0.0722401
0.235152
0.430724
0.509947
0.466206
0.390468
0.213553
0.068182
0.0440217
0.0681826
0.213554
0.390468
0.466202
0.424571
0.352131
0.193023
0.0646699
0.041264
0.0646703
0.193024
0.35213
0.424568
0.385508
0.316704
0.175598
0.0633465
0.0407341
0.0633469
0.175598
0.316704
0.385504
0.349444
0.286182
0.161937
0.0651685
0.0436064
0.065169
0.161937
0.286182
0.349441
0.315582
0.263379
0.154693
0.0637646
0.0413141
0.063765
0.154693
0.263379
0.315579
0.279526
0.247067
0.160764
0.0652357
0.0343174
0.0652362
0.160765
0.247067
0.279523
0.20802
0.200458
0.15945
0.0787163
0.0313277
0.0787164
0.15945
0.200457
0.208019
)
;

boundaryField
{
    injectionXMinus
    {
        type            zeroGradient;
    }
    injectionXPlus
    {
        type            zeroGradient;
    }
    injectionYMinus
    {
        type            zeroGradient;
    }
    injectionYPlus
    {
        type            zeroGradient;
    }
    inletXMinus
    {
        type            fixedValue;
        value           uniform 1;
    }
    inletXPlus
    {
        type            fixedValue;
        value           uniform 1;
    }
    inletYMinus
    {
        type            fixedValue;
        value           uniform 1;
    }
    inletYPlus
    {
        type            fixedValue;
        value           uniform 1;
    }
    outlet
    {
        type            zeroGradient;
    }
    valve
    {
        type            zeroGradient;
    }
    walls
    {
        type            zeroGradient;
    }
}


// ************************************************************************* //
