/*--------------------------------*- C++ -*----------------------------------*\
  =========                 |
  \\      /  F ield         | OpenFOAM: The Open Source CFD Toolbox
   \\    /   O peration     | Website:  https://openfoam.org
    \\  /    A nd           | Version:  6
     \\/     M anipulation  |
\*---------------------------------------------------------------------------*/
FoamFile
{
    version     2.0;
    format      ascii;
    class       volScalarField;
    location    "0.7";
    object      alpha_exh;
}
// * * * * * * * * * * * * * * * * * * * * * * * * * * * * * * * * * * * * * //

dimensions      [0 0 0 0 0 0 0];

internalField   nonuniform List<scalar> 
3029
(
2.03448e-07
-9.04111e-07
5.03899e-06
-4.09222e-05
0.000303845
-4.03966e-05
5.26265e-06
-7.91532e-07
-4.6971e-07
-4.84311e-07
-1.55966e-06
3.82946e-06
-4.30869e-05
0.000342574
-4.22319e-05
4.22523e-06
-1.07963e-06
-5.70377e-07
-1.87199e-06
-4.20681e-06
4.05917e-06
-4.96721e-05
0.000494102
-4.82166e-05
5.3788e-06
-2.7285e-06
-1.74505e-06
-3.77834e-06
-7.59176e-06
5.14101e-06
-4.76599e-05
0.000815597
-4.54228e-05
7.82743e-06
-4.65232e-06
-3.39815e-06
-5.37365e-06
-1.02532e-05
1.12656e-05
-8.54273e-06
0.00142459
-5.45016e-06
1.55581e-05
-5.36053e-06
-4.40371e-06
-2.71348e-06
-6.1733e-06
3.59437e-05
0.000135216
0.0025276
0.000139172
4.19099e-05
8.54084e-07
-9.85226e-07
1.58819e-05
2.16316e-05
0.000112355
0.000527357
0.00445637
0.00053216
0.000120041
3.10772e-05
1.88058e-05
8.34739e-05
0.000119055
0.000324069
0.00145224
0.00770965
0.00145784
0.00033342
0.000130803
8.75783e-05
0.00028214
0.000397009
0.000870466
0.00342088
0.0129915
0.00342721
0.000881485
0.000411219
0.000287884
0.000815688
0.00112081
0.00218961
0.00725192
0.0212093
0.00725889
0.00220216
0.00113719
0.000822877
0.00212739
0.00283714
0.00508532
0.0141616
0.0335676
0.014169
0.00509935
0.0028558
0.00213649
0.00503595
0.0065207
0.0108819
0.025578
0.0509426
0.0255855
0.0108971
0.00654121
0.00504663
0.0107824
0.013514
0.0211394
0.0439307
0.076588
0.0439381
0.0211556
0.0135364
0.0107951
0.020856
0.02576
0.0391839
0.0693749
0.103422
0.0693819
0.0392005
0.0257836
0.0208703
0.036736
0.0439492
0.0619039
0.115243
0.180464
0.115249
0.0619202
0.0439737
0.0367523
0.0579575
0.0708667
0.122544
0.170399
0.0559486
0.170403
0.122559
0.070891
0.0579753
0.0856957
0.110863
0.123304
-0.0627347
-0.203363
-0.0627325
0.123315
0.110886
0.0857151
0.119267
0.146418
0.0817647
-0.138007
-0.151121
-0.138006
0.0817728
0.14644
0.119287
0.155406
0.177546
0.0641607
-0.151019
-0.134756
-0.151018
0.064168
0.177566
0.155427
0.192748
0.208648
0.0686159
-0.144453
-0.125558
-0.144452
0.0686235
0.208667
0.192768
0.231252
0.241397
0.085441
-0.131053
-0.117276
-0.131052
0.0854491
0.241415
0.231272
0.271075
0.27584
0.108216
-0.115055
-0.108794
-0.115053
0.108224
0.275857
0.271094
0.312145
0.311496
0.133599
-0.0980155
-0.0999998
-0.0980133
0.133607
0.311511
0.312163
0.354143
0.347754
0.159919
-0.0805604
-0.0909632
-0.0805579
0.159927
0.347769
0.35416
0.396575
0.383971
0.186209
-0.0629643
-0.0817462
-0.0629615
0.186218
0.383984
0.396591
0.438848
0.419458
0.211773
-0.0453671
-0.0723639
-0.0453641
0.211781
0.41947
0.438863
0.480314
0.453476
0.236043
-0.0277073
-0.0626819
-0.0277042
0.236051
0.453486
0.480328
0.520288
0.485217
0.258453
-0.00998533
-0.0528107
-0.00998234
0.25846
0.485227
0.520301
0.558059
0.514072
0.27993
0.0103536
-0.0400821
0.0103564
0.279937
0.51408
0.558071
0.593018
0.540048
0.300695
0.0317708
-0.0276249
0.0317733
0.300701
0.540055
0.593029
0.624674
0.565265
0.334534
0.081962
0.0178556
0.081964
0.334539
0.565271
0.624684
0.657144
0.59536
0.369329
0.112877
0.0390797
0.112878
0.369332
0.595365
0.657153
0.697716
0.646937
0.425626
0.114216
0.00327499
0.114217
0.425629
0.646942
0.697724
0.777463
0.757438
0.612889
0.263709
0.028489
0.263709
0.612891
0.757442
0.77747
-9.35393e-07
-7.3008e-06
-1.68578e-06
-8.84313e-06
0.000674984
-6.93045e-06
-1.02752e-07
-6.22759e-06
-1.11961e-06
-1.5431e-06
-8.64377e-06
-1.66283e-06
-8.28178e-06
0.000767917
-5.85255e-06
5.53041e-07
-6.73959e-06
-1.02819e-06
-4.14267e-06
-1.23288e-05
1.56641e-06
-1.84493e-06
0.00105287
1.31745e-06
4.90542e-06
-9.14621e-06
-2.44928e-06
-7.46828e-06
-1.73879e-05
1.22234e-05
3.82596e-05
0.00167311
4.23288e-05
1.71505e-05
-1.2284e-05
-4.06181e-06
-1.00453e-05
-1.93036e-05
3.93271e-05
0.000189952
0.00287748
0.000194986
4.60646e-05
-1.18173e-05
-4.43913e-06
-5.85716e-06
-4.72258e-06
0.000111237
0.000625294
0.00504919
0.000631303
0.000119932
5.44088e-06
2.24896e-06
2.20729e-05
5.79869e-05
0.000304592
0.00166477
0.00872292
0.00167169
0.000315218
7.09336e-05
3.29165e-05
0.000119632
0.000246141
0.000806557
0.00384351
0.0145973
0.00385128
0.000819124
0.00026189
0.000133195
0.000397728
0.000740005
0.00200686
0.00796181
0.0235271
0.00797028
0.00202122
0.000758482
0.000414084
0.00112167
0.00193152
0.00461243
0.0151022
0.036483
0.0151112
0.00462849
0.00195259
0.00114061
0.00283814
0.00455489
0.00971341
0.0265698
0.054513
0.026579
0.00973089
0.00457836
0.00285968
0.00652184
0.00977621
0.0188073
0.0437958
0.0784382
0.043805
0.0188259
0.00980179
0.00654561
0.0135153
0.0191342
0.0335201
0.0680341
0.109379
0.0680429
0.0335394
0.0191615
0.0135412
0.0257614
0.0344167
0.0560326
0.100992
0.145656
0.101
0.0560521
0.0344452
0.0257889
0.0439507
0.0570477
0.0858099
0.13922
0.193679
0.139227
0.0858288
0.0570768
0.0439795
0.0708685
0.086826
0.130104
0.209054
0.231282
0.20906
0.130121
0.0868548
0.0708979
0.110865
0.126255
0.174561
0.15071
-0.00307952
0.150714
0.174576
0.126282
0.110895
0.146421
0.169521
0.195641
0.0604559
-0.105476
0.060459
0.195653
0.169547
0.146449
0.177549
0.210508
0.211802
0.0226924
-0.123944
0.0226954
0.211814
0.210532
0.177576
0.208651
0.249068
0.23225
0.0194233
-0.115156
0.0194266
0.232261
0.249091
0.208676
0.2414
0.286529
0.257266
0.0328714
-0.0969651
0.0328751
0.257276
0.28655
0.241424
0.275843
0.323738
0.285038
0.0534946
-0.0753245
0.0534987
0.285048
0.323758
0.275866
0.311498
0.360906
0.314034
0.0769161
-0.0524091
0.0769205
0.314044
0.360924
0.311519
0.347757
0.397846
0.343218
0.101422
-0.0288416
0.101426
0.343227
0.397862
0.347776
0.383973
0.434173
0.371944
0.126425
-0.00460849
0.12643
0.371953
0.434188
0.383991
0.419461
0.469397
0.399761
0.152041
0.0207801
0.152046
0.39977
0.46941
0.419477
0.453478
0.503003
0.426576
0.179446
0.0490081
0.17945
0.426584
0.503014
0.453493
0.48522
0.534103
0.451986
0.210787
0.0830644
0.210791
0.451992
0.534113
0.485233
0.514075
0.562778
0.480541
0.256264
0.135653
0.256267
0.480546
0.562785
0.514086
0.540051
0.584539
0.502323
0.315056
0.20803
0.315058
0.502327
0.584545
0.540061
0.565268
0.611645
0.600639
0.505514
0.443724
0.505514
0.600641
0.61165
0.565277
0.595363
0.626802
0.633001
0.574015
0.524969
0.574015
0.633002
0.626806
0.595371
0.64694
0.653074
0.580524
0.419505
0.345336
0.419505
0.580525
0.653078
0.646947
0.757439
0.762778
0.662186
0.330781
0.0908997
0.330781
0.662188
0.762782
0.757445
5.01813e-06
-1.46563e-06
0.000109476
-0.000352967
0.00194442
-0.000349407
0.00011249
3.29165e-07
5.05112e-06
3.91925e-06
-1.25313e-06
0.000108047
-0.000293253
0.00258593
-0.000289068
0.000111939
1.42998e-06
4.50699e-06
4.38424e-06
2.24216e-06
0.000106688
-8.88081e-05
0.00418019
-8.39093e-05
0.000111755
6.32906e-06
6.35023e-06
5.81412e-06
1.32771e-05
0.000114638
0.000478252
0.00714818
0.00048392
0.000121189
1.9358e-05
9.83699e-06
1.23856e-05
4.08468e-05
0.000187457
0.00177201
0.0120107
0.00177842
0.000195631
4.91785e-05
1.87114e-05
3.75756e-05
0.000113271
0.000474254
0.00433351
0.0193802
0.00434059
0.000484105
0.000124064
4.64394e-05
0.000114531
0.000307149
0.00127952
0.00889187
0.0299312
0.00889948
0.00129099
0.00032037
0.0001259
0.000326792
0.000809619
0.00314013
0.0163569
0.0443722
0.0163649
0.00315312
0.000825296
0.000340722
0.000873727
0.00201039
0.00688319
0.0277688
0.0633985
0.0277769
0.00689753
0.00202835
0.000890101
0.00219338
0.00461637
0.0136414
0.0442087
0.08763
0.0442167
0.0136569
0.00463651
0.00221215
0.00508957
0.00971769
0.0247772
0.0666517
0.117505
0.0666594
0.0247934
0.00973971
0.00511055
0.0108866
0.0188118
0.041732
0.0958141
0.15319
0.0958211
0.0417487
0.0188355
0.0109096
0.0211445
0.0335249
0.0657294
0.131802
0.1941
0.131809
0.0657461
0.0335496
0.0211692
0.0391894
0.0560375
0.0975661
0.174358
0.239755
0.174363
0.0975823
0.0560629
0.0392153
0.0619098
0.0858149
0.136704
0.219788
0.282472
0.219792
0.13672
0.0858402
0.0619362
0.122551
0.130109
0.181215
0.270035
0.337386
0.270039
0.18123
0.130134
0.122577
0.123311
0.174567
0.228407
0.308734
0.314782
0.308737
0.22842
0.17459
0.123333
0.0817703
0.195647
0.272088
0.318901
0.246664
0.318904
0.2721
0.195668
0.0817886
0.0641655
0.211808
0.310885
0.32791
0.21813
0.327913
0.310896
0.211827
0.0641815
0.0686202
0.232255
0.346868
0.344874
0.221702
0.344877
0.346878
0.232272
0.0686352
0.085445
0.25727
0.381546
0.368199
0.241932
0.368202
0.381555
0.257287
0.0854596
0.10822
0.285042
0.41544
0.39475
0.269319
0.394753
0.415449
0.285058
0.108234
0.133602
0.314038
0.448494
0.422425
0.299274
0.422428
0.448502
0.314053
0.133616
0.159922
0.343222
0.480477
0.450006
0.329844
0.450009
0.480484
0.343236
0.159935
0.186213
0.371948
0.511151
0.477056
0.360484
0.477059
0.511157
0.371961
0.186225
0.211777
0.399766
0.540328
0.503745
0.391717
0.503748
0.540333
0.399777
0.211788
0.236048
0.426581
0.568092
0.531029
0.42541
0.531031
0.568096
0.426591
0.236058
0.258457
0.45199
0.59438
0.561306
0.46589
0.561307
0.594383
0.451999
0.258467
0.279935
0.480546
0.623516
0.601229
0.523442
0.60123
0.623519
0.480553
0.279943
0.300701
0.502327
0.648812
0.665031
0.619901
0.66503
0.648814
0.502333
0.300708
0.33454
0.600643
0.824619
0.858803
0.865489
0.858802
0.824618
0.600646
0.334546
0.369335
0.633004
0.633006
0.36934
0.425632
0.580528
0.637682
0.560223
0.481009
0.560223
0.637684
0.580531
0.425637
0.612894
0.662191
0.675045
0.486756
0.297167
0.486755
0.675047
0.662194
0.612898
0.693407
0.484707
0.260343
0.484706
0.693409
0.703307
0.49268
0.258768
0.492678
0.703308
0.709539
0.50016
0.264975
0.500157
0.70954
0.714292
0.506486
0.272713
0.506484
0.714293
0.71841
0.512156
0.280688
0.512153
0.718411
0.72221
0.517516
0.288685
0.517514
0.722211
0.725806
0.522725
0.296678
0.522723
0.725807
0.729248
0.527865
0.304706
0.527863
0.729249
0.732539
0.532905
0.312663
0.532904
0.73254
0.735771
0.538108
0.321022
0.538107
0.735772
0.738569
0.542437
0.327862
0.542436
0.73857
0.743077
0.55044
0.341099
0.550439
0.743078
-4.07026e-05
-7.5112e-06
-0.000351308
0.00760706
0.0405183
0.00761218
-0.00034625
-4.34626e-06
-4.03234e-05
-4.22454e-05
-6.31247e-06
-0.000291165
0.00879629
0.0437
0.00880187
-0.000285266
-2.10998e-06
-4.03968e-05
-4.81196e-05
9.22361e-07
-8.62247e-05
0.0116183
0.0505044
0.0116243
-7.93002e-05
6.50781e-06
-4.4797e-05
-4.52362e-05
4.20045e-05
0.000481394
0.0165593
0.0611429
0.0165656
0.000489493
4.93476e-05
-4.00093e-05
-5.12362e-06
0.000194783
0.00177572
0.0241974
0.0757263
0.0242039
0.00178501
0.000203999
2.02663e-06
0.000139686
0.000631235
0.00433777
0.0351928
0.0943779
0.0351992
0.00434818
0.000642414
0.000148967
0.000532882
0.00167178
0.00889662
0.0502274
0.117225
0.0502336
0.00890799
0.00168485
0.000544158
0.00145878
0.0038515
0.0163621
0.0699464
0.144381
0.0699522
0.0163742
0.0038664
0.00147215
0.00342837
0.00797066
0.0277742
0.0948856
0.175897
0.0948908
0.0277869
0.0079872
0.00344363
0.00726027
0.0151118
0.0442144
0.125398
0.211719
0.125402
0.0442272
0.0151298
0.00727742
0.0141707
0.0265798
0.0666574
0.161561
0.25161
0.161564
0.0666702
0.0265989
0.0141894
0.0255877
0.0438063
0.0958198
0.20308
0.295082
0.203082
0.0958321
0.0438261
0.0256079
0.043941
0.0680447
0.131808
0.249109
0.341197
0.249111
0.13182
0.0680649
0.0439621
0.0693854
0.101002
0.174363
0.298065
0.388564
0.298066
0.174374
0.101022
0.0694071
0.115254
0.13923
0.219793
0.347264
0.434173
0.347264
0.219803
0.13925
0.115276
0.170409
0.209064
0.270041
0.392263
0.475448
0.392263
0.27005
0.209083
0.170429
-0.0627298
0.150718
0.30874
0.432842
0.51015
0.432842
0.30875
0.150734
-0.0627184
-0.138005
0.0604618
0.318906
0.468574
0.532075
0.468574
0.318916
0.0604741
-0.137998
-0.151018
0.022697
0.327915
0.501026
0.551867
0.501026
0.327924
0.0227074
-0.151012
-0.144452
0.0194273
0.344879
0.531963
0.574144
0.531963
0.344886
0.0194365
-0.144446
-0.131052
0.032875
0.368204
0.562056
0.598536
0.562056
0.36821
0.0328836
-0.131046
-0.115054
0.0534979
0.394755
0.591255
0.623651
0.591254
0.394761
0.053506
-0.115048
-0.0980151
0.0769192
0.42243
0.619321
0.648485
0.61932
0.422435
0.0769269
-0.0980087
-0.0805603
0.101425
0.45001
0.646029
0.672458
0.646028
0.450015
0.101432
-0.0805539
-0.0629644
0.126428
0.477061
0.671335
0.695401
0.671334
0.477065
0.126435
-0.0629582
-0.0453675
0.152044
0.50375
0.695431
0.717521
0.69543
0.503754
0.15205
-0.0453614
-0.0277079
0.179449
0.531034
0.718883
0.739475
0.718881
0.531037
0.179455
-0.0277023
-0.00998626
0.21079
0.561311
0.743189
0.762848
0.743187
0.561313
0.210795
-0.00998105
0.0103526
0.256268
0.601234
0.771004
0.790537
0.771003
0.601236
0.256272
0.0103572
0.0317698
0.315061
0.665036
0.813719
0.831384
0.813718
0.665036
0.315064
0.0317738
0.0819617
0.505518
0.858805
0.875691
0.887068
0.87569
0.858804
0.505519
0.0819648
0.112877
0.57402
0.57402
0.112879
0.114217
0.419508
0.560227
0.620977
0.581771
0.620976
0.560226
0.419509
0.114219
0.263712
0.330785
0.48676
0.589208
0.532561
0.589207
0.48676
0.330787
0.263713
0.484711
0.572473
0.508618
0.572472
0.484711
0.492684
0.568153
0.501819
0.568152
0.492684
0.500163
0.568723
0.501924
0.568723
0.500164
0.50649
0.570969
0.504474
0.570969
0.506491
0.512159
0.573739
0.507836
0.57374
0.51216
0.51752
0.576659
0.51146
0.57666
0.51752
0.522728
0.57961
0.515163
0.579611
0.522729
0.527868
0.58257
0.518908
0.582572
0.527869
0.532909
0.585495
0.522624
0.585498
0.53291
0.538112
0.588545
0.526538
0.588547
0.538113
0.54244
0.591092
0.529748
0.591094
0.542442
0.550443
0.595868
0.535977
0.595871
0.550444
0.000305792
0.000679591
0.00195064
0.040523
0.13205
0.0405271
0.0019563
0.000683335
0.000306108
0.000345866
0.000773646
0.00259292
0.0437049
0.137134
0.0437092
0.00259915
0.000778437
0.000348325
0.000498667
0.00105983
0.00418795
0.0505094
0.147284
0.0505137
0.00419481
0.00106578
0.00050263
0.000821479
0.00168141
0.00715669
0.0611479
0.162113
0.0611521
0.00716423
0.00168868
0.000827028
0.00143182
0.00288713
0.0120198
0.0757312
0.181072
0.0757351
0.012028
0.00289575
0.00143879
0.00253614
0.00506013
0.0193899
0.0943824
0.203736
0.094386
0.0193986
0.00507012
0.0025447
0.00446616
0.008735
0.0299412
0.11723
0.229826
0.117233
0.0299503
0.00874629
0.00447613
0.00772056
0.0146103
0.0443824
0.144385
0.259177
0.144387
0.0443917
0.0146228
0.00773207
0.0130034
0.0235409
0.0634087
0.1759
0.291663
0.175902
0.063418
0.0235544
0.0130162
0.021222
0.0364973
0.0876399
0.211721
0.327124
0.211723
0.087649
0.0365117
0.0212362
0.0335809
0.0545275
0.117514
0.251612
0.365299
0.251613
0.117523
0.0545425
0.0335962
0.0509563
0.0784526
0.153198
0.295084
0.405758
0.295083
0.153207
0.078468
0.0509726
0.0766018
0.109393
0.194109
0.341198
0.447809
0.341198
0.194116
0.109409
0.0766187
0.103436
0.145669
0.239763
0.388565
0.490377
0.388564
0.23977
0.145685
0.103453
0.180477
0.193692
0.28248
0.434174
0.531958
0.434172
0.282486
0.193707
0.180495
0.0559567
0.231293
0.337393
0.475449
0.56987
0.475447
0.3374
0.231308
0.05597
-0.203361
-0.00307365
0.314788
0.510152
0.60372
0.51015
0.314796
-0.00306347
-0.203355
-0.15112
-0.105473
0.24667
0.532077
0.63425
0.532076
0.246677
-0.105466
-0.151116
-0.134755
-0.123943
0.218135
0.551869
0.66152
0.551868
0.218141
-0.123936
-0.134751
-0.125558
-0.115155
0.221706
0.574146
0.686142
0.574145
0.221711
-0.115148
-0.125554
-0.117276
-0.0969644
0.241936
0.598538
0.708839
0.598536
0.24194
-0.0969582
-0.117271
-0.108794
-0.0753242
0.269323
0.623653
0.730077
0.623651
0.269326
-0.0753182
-0.108789
-0.100001
-0.0524093
0.299277
0.648487
0.750066
0.648485
0.29928
-0.0524035
-0.0999958
-0.0909648
-0.0288424
0.329847
0.67246
0.768907
0.672458
0.329849
-0.0288368
-0.0909599
-0.0817485
-0.00460986
0.360487
0.695403
0.786639
0.695401
0.360488
-0.00460468
-0.0817437
-0.072367
0.0207781
0.39172
0.717523
0.803315
0.717521
0.391721
0.0207829
-0.0723624
-0.0626859
0.0490056
0.425413
0.739477
0.819076
0.739474
0.425413
0.0490099
-0.0626815
-0.0528158
0.0830615
0.465893
0.762851
0.834299
0.762848
0.465893
0.0830653
-0.0528117
-0.0400881
0.13565
0.523445
0.790539
0.849805
0.790537
0.523445
0.135653
-0.0400843
-0.0276316
0.208028
0.619905
0.831386
0.868226
0.831384
0.619904
0.20803
-0.0276285
0.0178491
0.443724
0.865492
0.887069
0.901946
0.887068
0.865491
0.443724
0.0178513
0.039073
0.52497
0.524969
0.0390744
0.00326707
0.345334
0.481009
0.581771
0.625169
0.581769
0.481008
0.345334
0.00326862
0.0284801
0.0908919
0.297164
0.532561
0.623237
0.53256
0.297164
0.0908929
0.028481
0.260339
0.508617
0.620277
0.508616
0.260338
0.258763
0.501818
0.618769
0.501821
0.258765
0.264971
0.501922
0.618422
0.501926
0.264973
0.272708
0.504472
0.618675
0.504477
0.272711
0.280684
0.507835
0.619196
0.507841
0.280687
0.288681
0.511458
0.619846
0.511466
0.288685
0.296674
0.515162
0.620574
0.51517
0.296679
0.304702
0.518906
0.621371
0.518915
0.304707
0.312659
0.522623
0.622211
0.522632
0.312664
0.321018
0.526537
0.623188
0.526546
0.321023
0.327858
0.529747
0.623987
0.529756
0.327864
0.341095
0.535976
0.625811
0.535986
0.341101
-3.92795e-05
-3.59213e-06
-0.000344257
0.00761769
0.0405293
0.00761997
-0.000341875
-2.17596e-06
-3.9525e-05
-4.03947e-05
-1.7328e-06
-0.000283219
0.00880773
0.0437115
0.00881019
-0.000280472
2.53899e-07
-3.96053e-05
-4.52737e-05
6.57249e-06
-7.72134e-05
0.0116304
0.0505159
0.011633
-7.39603e-05
9.28864e-06
-4.37278e-05
-4.10841e-05
4.90035e-05
0.000491577
0.016572
0.0611542
0.0165748
0.000495468
5.2687e-05
-3.85023e-05
4.16405e-07
0.000203203
0.00178704
0.0242104
0.0757371
0.0242132
0.00179162
0.000207953
3.99225e-06
0.000146573
0.000641041
0.00435007
0.0352056
0.0943877
0.0352085
0.00435532
0.000646952
0.000151389
0.000541034
0.00168284
0.00890964
0.0502398
0.117234
0.0502425
0.00891551
0.00168991
0.000546979
0.00146807
0.00386365
0.0163755
0.069958
0.144388
0.0699605
0.0163819
0.00387186
0.00147532
0.00343864
0.00798364
0.0277877
0.094896
0.175903
0.0948981
0.0277944
0.00799291
0.00344704
0.00727132
0.0151253
0.0442275
0.125407
0.211723
0.125408
0.0442344
0.0151355
0.00728099
0.0141822
0.0265934
0.0666698
0.161568
0.251613
0.161569
0.0666767
0.0266045
0.0141929
0.0255992
0.0438195
0.0958309
0.203086
0.295083
0.203086
0.0958377
0.0438311
0.0256111
0.043952
0.068057
0.131818
0.249113
0.341197
0.249113
0.131824
0.0680691
0.0439648
0.0693956
0.101013
0.174372
0.298068
0.388563
0.298068
0.174378
0.101026
0.0694091
0.115262
0.13924
0.219799
0.347265
0.434172
0.347264
0.219805
0.139252
0.115277
0.170415
0.209071
0.270046
0.392264
0.475447
0.392263
0.270052
0.209084
0.170429
-0.0627273
0.150723
0.308744
0.432843
0.51015
0.432842
0.30875
0.150734
-0.0627185
-0.138004
0.0604649
0.31891
0.468575
0.532076
0.468573
0.318916
0.060474
-0.137998
-0.151017
0.0226995
0.327918
0.501027
0.551868
0.501026
0.327924
0.0227073
-0.151012
-0.144452
0.0194296
0.344881
0.531964
0.574145
0.531962
0.344886
0.0194367
-0.144447
-0.131052
0.0328771
0.368206
0.562057
0.598536
0.562055
0.36821
0.0328837
-0.131047
-0.115054
0.0534997
0.394756
0.591255
0.623651
0.591253
0.394759
0.0535059
-0.115049
-0.0980146
0.0769205
0.422431
0.619321
0.648486
0.61932
0.422433
0.0769262
-0.0980096
-0.08056
0.101425
0.450011
0.646029
0.672458
0.646027
0.450012
0.10143
-0.0805551
-0.0629646
0.126428
0.47706
0.671335
0.695402
0.671333
0.477061
0.126432
-0.0629598
-0.0453683
0.152043
0.503749
0.69543
0.717522
0.695429
0.503749
0.152047
-0.0453638
-0.0277097
0.179446
0.531032
0.718882
0.739476
0.718881
0.531032
0.17945
-0.0277054
-0.00998914
0.210786
0.561307
0.743188
0.76285
0.743187
0.561307
0.210789
-0.00998518
0.0103484
0.256261
0.60123
0.771004
0.790539
0.771003
0.60123
0.256264
0.010352
0.0317642
0.315053
0.665031
0.813719
0.831386
0.813718
0.66503
0.315054
0.031767
0.0819545
0.505512
0.858804
0.875691
0.887069
0.875691
0.858803
0.505511
0.0819566
0.112868
0.574013
0.574013
0.11287
0.114205
0.4195
0.560219
0.620972
0.58177
0.620973
0.560219
0.4195
0.114207
0.263696
0.33077
0.486748
0.589202
0.53256
0.589205
0.48675
0.330773
0.263699
0.484698
0.572466
0.508616
0.57247
0.484701
0.49267
0.568146
0.50182
0.568153
0.492674
0.500149
0.568717
0.501925
0.568725
0.500153
0.506476
0.570963
0.504477
0.570972
0.50648
0.512145
0.573734
0.50784
0.573743
0.512149
0.517505
0.576654
0.511465
0.576663
0.51751
0.522715
0.579606
0.515169
0.579615
0.522719
0.527855
0.582566
0.518914
0.582575
0.527859
0.532896
0.585492
0.522631
0.585501
0.5329
0.538099
0.588542
0.526546
0.58855
0.538103
0.542428
0.591089
0.529756
0.591097
0.542432
0.550431
0.595865
0.535985
0.595873
0.550435
5.55344e-06
1.65132e-06
0.000115265
-0.000342846
0.00195848
-0.000341648
0.000116279
2.21209e-06
5.41451e-06
4.66479e-06
2.68485e-06
0.000115131
-0.000281566
0.00260141
-0.000280231
0.000116378
3.58462e-06
4.84616e-06
6.66452e-06
7.85804e-06
0.000115616
-7.5205e-05
0.00419718
-7.36794e-05
0.000117212
9.21378e-06
7.23092e-06
1.03241e-05
2.12867e-05
0.000125932
0.000494049
0.0071667
0.000495807
0.000127997
2.33031e-05
1.15782e-05
1.94339e-05
5.15721e-05
0.000201352
0.00179002
0.0120305
0.00179202
0.000203963
5.43654e-05
2.13379e-05
4.72017e-05
0.000126843
0.000490787
0.00435357
0.0194012
0.00435579
0.000493981
0.000130499
5.00166e-05
0.000126713
0.000323476
0.00129855
0.00891364
0.0299529
0.00891603
0.00130233
0.000328042
0.000130314
0.000341374
0.000828596
0.00316141
0.01638
0.0443941
0.0163825
0.00316576
0.000834065
0.000345986
0.000890604
0.00203174
0.00690636
0.0277925
0.0634202
0.027795
0.00691122
0.00203812
0.000896053
0.00221229
0.00463983
0.013666
0.0442326
0.087651
0.044235
0.0136713
0.00464704
0.00221877
0.00511029
0.0097428
0.0248026
0.0666751
0.117525
0.0666773
0.0248082
0.00975081
0.0051176
0.0109087
0.0188381
0.0417577
0.0958365
0.153208
0.0958382
0.0417634
0.0188468
0.010917
0.0211675
0.0335516
0.0657546
0.131823
0.194117
0.131824
0.0657603
0.0335608
0.0211765
0.0392125
0.0560639
0.0975903
0.174377
0.23977
0.174378
0.0975958
0.0560735
0.0392223
0.061932
0.0858401
0.136727
0.219805
0.282487
0.219805
0.136732
0.0858499
0.0619424
0.12257
0.130132
0.181236
0.270052
0.3374
0.270052
0.181241
0.130142
0.122582
0.123325
0.174586
0.228426
0.308751
0.314796
0.30875
0.22843
0.174596
0.123336
0.08178
0.195662
0.272105
0.318916
0.246677
0.318916
0.272109
0.195672
0.0817899
0.0641734
0.211821
0.3109
0.327924
0.218141
0.327924
0.310904
0.21183
0.0641822
0.0686277
0.232266
0.346882
0.344886
0.221711
0.344886
0.346885
0.232275
0.0686359
0.0854523
0.257281
0.381558
0.36821
0.24194
0.36821
0.381561
0.257289
0.08546
0.108226
0.285051
0.415451
0.39476
0.269326
0.39476
0.415454
0.285058
0.108234
0.133609
0.314046
0.448503
0.422435
0.29928
0.422434
0.448506
0.314053
0.133615
0.159927
0.343228
0.480485
0.450014
0.329849
0.450014
0.480487
0.343234
0.159934
0.186217
0.371953
0.511157
0.477064
0.360489
0.477063
0.511159
0.371958
0.186222
0.211779
0.399768
0.540333
0.503752
0.391722
0.503752
0.540335
0.399773
0.211784
0.236047
0.426581
0.568095
0.531036
0.425415
0.531035
0.568097
0.426585
0.236052
0.258455
0.451989
0.594382
0.561311
0.465895
0.561311
0.594383
0.451992
0.258459
0.27993
0.480542
0.623517
0.601234
0.523447
0.601233
0.623518
0.480545
0.279934
0.300693
0.502321
0.648812
0.665035
0.619906
0.665034
0.648812
0.502324
0.300696
0.33453
0.600637
0.824619
0.858806
0.865493
0.858805
0.824619
0.600638
0.334533
0.369324
0.632998
0.632999
0.369326
0.42562
0.58052
0.637679
0.560222
0.481009
0.560223
0.63768
0.580522
0.425623
0.612884
0.662182
0.675041
0.486753
0.297162
0.486754
0.675043
0.662185
0.612887
0.693403
0.484703
0.260336
0.484705
0.693405
0.703302
0.492676
0.258763
0.492678
0.703304
0.709535
0.500156
0.264971
0.500157
0.709537
0.714288
0.506483
0.272709
0.506484
0.71429
0.718406
0.512152
0.280685
0.512153
0.718408
0.722205
0.517513
0.288683
0.517514
0.722208
0.725802
0.522722
0.296676
0.522723
0.725804
0.729243
0.527862
0.304705
0.527863
0.729245
0.732535
0.532903
0.312662
0.532904
0.732536
0.735766
0.538106
0.321021
0.538107
0.735768
0.738565
0.542434
0.327862
0.542435
0.738566
0.743073
0.550437
0.341099
0.550438
0.743074
-4.82285e-07
-5.05933e-06
1.71798e-06
-2.64822e-06
0.000684638
-2.05513e-06
2.22064e-06
-4.71389e-06
-6.21722e-07
-6.49226e-07
-5.3697e-06
2.97763e-06
-2.7893e-07
0.000779791
3.77439e-07
3.59029e-06
-4.7677e-06
-4.65765e-07
-1.71481e-06
-7.24894e-06
8.36987e-06
8.65103e-06
0.00106724
9.44413e-06
9.22057e-06
-6.34929e-06
-1.22131e-06
-2.77074e-06
-9.52382e-06
2.21158e-05
5.19111e-05
0.00169028
5.28915e-05
2.33109e-05
-8.11678e-06
-1.69763e-06
-2.43667e-06
-7.99752e-06
5.275e-05
0.000207015
0.0028975
0.000208217
5.43747e-05
-6.01198e-06
-8.56948e-07
4.88546e-06
1.03741e-05
0.000128439
0.000645848
0.00507199
0.000647272
0.000130506
1.30607e-05
7.2559e-06
3.62064e-05
7.69464e-05
0.000325491
0.00168864
0.00874825
0.00169028
0.000328045
8.03257e-05
3.91737e-05
0.000136957
0.000268874
0.000831057
0.00387045
0.0146248
0.00387226
0.000834061
0.000273002
0.000140809
0.000418298
0.000766304
0.00203463
0.00799139
0.0235564
0.00799334
0.0020381
0.000771132
0.000422774
0.00114506
0.00196108
0.00464315
0.0151339
0.0365135
0.0151359
0.00464701
0.00196662
0.00115045
0.00286431
0.00458732
0.00974654
0.026603
0.0545442
0.0266049
0.00975077
0.0045935
0.00287032
0.00655019
0.00981101
0.0188423
0.0438298
0.0784695
0.0438315
0.0188467
0.00981779
0.00655709
0.0135456
0.0191707
0.0335562
0.0680681
0.10941
0.0680695
0.0335608
0.019178
0.0135531
0.0257929
0.0344542
0.056069
0.101025
0.145686
0.101026
0.0560734
0.0344618
0.0258011
0.0439828
0.0570853
0.0858455
0.139252
0.193707
0.139252
0.0858497
0.0570931
0.0439914
0.0709
0.0868626
0.130138
0.209085
0.231308
0.209084
0.130141
0.0868704
0.0709091
0.110895
0.126289
0.174593
0.150734
-0.00306422
0.150734
0.174596
0.126297
0.110904
0.146448
0.169553
0.195669
0.0604733
-0.105467
0.0604735
0.195671
0.16956
0.146457
0.177574
0.210537
0.211828
0.0227062
-0.123938
0.0227068
0.21183
0.210544
0.177583
0.208673
0.249095
0.232273
0.0194349
-0.11515
0.0194363
0.232275
0.249102
0.208682
0.241421
0.286554
0.257287
0.0328817
-0.0969596
0.0328835
0.257289
0.28656
0.241429
0.275861
0.323761
0.285057
0.0535037
-0.0753197
0.0535059
0.285059
0.323766
0.27587
0.311514
0.360926
0.314051
0.0769242
-0.052405
0.0769266
0.314053
0.360931
0.311522
0.347771
0.397863
0.343233
0.101429
-0.0288384
0.101431
0.343235
0.397868
0.347778
0.383985
0.434188
0.371958
0.126431
-0.0046063
0.126433
0.371959
0.434193
0.383992
0.41947
0.469409
0.399773
0.152046
0.0207812
0.152048
0.399775
0.469414
0.419477
0.453485
0.503012
0.426586
0.17945
0.0490082
0.179452
0.426588
0.503016
0.453491
0.485225
0.53411
0.451994
0.21079
0.0830636
0.210792
0.451995
0.534114
0.48523
0.514077
0.562782
0.480547
0.256266
0.135652
0.256267
0.480548
0.562785
0.514082
0.540051
0.584541
0.502327
0.315058
0.208029
0.315058
0.502327
0.584544
0.540055
0.565267
0.611646
0.600642
0.505516
0.443725
0.505515
0.600642
0.611648
0.56527
0.595361
0.626801
0.633002
0.574017
0.52497
0.574017
0.633002
0.626803
0.595364
0.646937
0.653073
0.580525
0.419504
0.345333
0.419503
0.580525
0.653075
0.646941
0.757439
0.762779
0.662188
0.330776
0.0908891
0.330777
0.662189
0.762781
0.757441
-3.05848e-07
-7.63859e-07
5.31311e-06
-3.97025e-05
0.000306849
-3.94863e-05
5.41555e-06
-6.21679e-07
-3.14345e-07
-3.78934e-07
-6.80419e-07
4.73733e-06
-3.97993e-05
0.000349049
-3.95745e-05
4.84569e-06
-4.66078e-07
-1.7216e-07
-1.18668e-06
-1.68102e-06
6.96877e-06
-4.39831e-05
0.00050341
-4.36801e-05
7.22991e-06
-1.22219e-06
-5.79152e-07
-2.24e-06
-2.64619e-06
1.10143e-05
-3.88808e-05
0.000827895
-3.84306e-05
1.15729e-05
-1.70093e-06
-8.36754e-07
-2.49955e-06
-2.26087e-06
2.04926e-05
3.49098e-06
0.00143975
4.09437e-06
2.13279e-05
-8.62905e-07
-3.58821e-07
1.72283e-06
5.2096e-06
4.87948e-05
0.000150734
0.00254575
0.000151515
4.99956e-05
7.24432e-06
4.9698e-06
2.23098e-05
3.66282e-05
0.000128781
0.000546189
0.00447725
0.000547128
0.000130281
3.91566e-05
2.6354e-05
9.18248e-05
0.000137579
0.000344051
0.00147438
0.00773322
0.00147548
0.000345935
0.000140783
9.70215e-05
0.000292797
0.000419054
0.000893804
0.00344599
0.0130174
0.00344721
0.000895983
0.00042274
0.000298707
0.000828361
0.00114605
0.00221613
0.00727983
0.0212373
0.00728115
0.00221868
0.00115041
0.000835362
0.00214243
0.00286546
0.0051147
0.0141918
0.0335972
0.0141931
0.00511749
0.00287027
0.00215001
0.0050529
0.0065516
0.0109138
0.02561
0.0509734
0.0256112
0.0109168
0.00655702
0.00506145
0.0108016
0.0135472
0.0211732
0.043964
0.0766194
0.0439649
0.0211764
0.013553
0.0108105
0.0208768
0.0257948
0.039219
0.0694086
0.103454
0.0694092
0.0392222
0.025801
0.0208864
0.0367587
0.043985
0.0619394
0.115277
0.180495
0.115277
0.0619423
0.0439913
0.0367684
0.0579813
0.0709028
0.12258
0.170429
0.0559695
0.170429
0.122582
0.070909
0.0579913
0.0857208
0.110899
0.123334
-0.0627194
-0.203356
-0.0627193
0.123336
0.110904
0.0857305
0.119293
0.146452
0.0817885
-0.138
-0.151117
-0.137999
0.0817895
0.146457
0.119302
0.155431
0.177578
0.0641807
-0.151014
-0.134753
-0.151014
0.0641818
0.177583
0.15544
0.192772
0.208678
0.068634
-0.144448
-0.125555
-0.144448
0.0686356
0.208682
0.192781
0.231276
0.241425
0.0854578
-0.131048
-0.117273
-0.131048
0.0854599
0.241429
0.231284
0.271097
0.275866
0.108231
-0.11505
-0.108791
-0.11505
0.108234
0.27587
0.271104
0.312165
0.311519
0.133613
-0.0980112
-0.0999975
-0.0980105
0.133616
0.311522
0.312173
0.354162
0.347775
0.159932
-0.0805567
-0.0909617
-0.0805559
0.159934
0.347778
0.354168
0.396592
0.383989
0.186221
-0.0629615
-0.0817457
-0.0629606
0.186224
0.383992
0.396598
0.438864
0.419474
0.211783
-0.0453654
-0.0723647
-0.0453644
0.211786
0.419477
0.438869
0.480327
0.453489
0.236052
-0.027707
-0.0626842
-0.0277059
0.236054
0.453492
0.480332
0.5203
0.485229
0.258459
-0.00998661
-0.0528148
-0.00998557
0.258462
0.485231
0.520304
0.558069
0.514081
0.279935