/*--------------------------------*- C++ -*----------------------------------*\
  =========                 |
  \\      /  F ield         | OpenFOAM: The Open Source CFD Toolbox
   \\    /   O peration     | Website:  https://openfoam.org
    \\  /    A nd           | Version:  6
     \\/     M anipulation  |
\*---------------------------------------------------------------------------*/
FoamFile
{
    version     2.0;
    format      ascii;
    class       volScalarField;
    location    "0.7";
    object      T;
}
// * * * * * * * * * * * * * * * * * * * * * * * * * * * * * * * * * * * * * //

dimensions      [0 0 0 1 0 0 0];

internalField   nonuniform List<scalar> 
3029
(
293.15
293.15
293.154
293.13
293.33
293.13
293.154
293.15
293.15
293.15
293.151
293.154
293.131
293.356
293.131
293.153
293.151
293.15
293.151
293.152
293.157
293.131
293.445
293.13
293.156
293.151
293.151
293.152
293.153
293.162
293.136
293.631
293.136
293.161
293.152
293.151
293.153
293.156
293.17
293.163
293.979
293.162
293.169
293.155
293.153
293.158
293.164
293.189
293.249
294.606
293.248
293.187
293.162
293.158
293.172
293.185
293.238
293.476
295.7
293.475
293.235
293.182
293.171
293.214
293.245
293.362
294.003
297.542
294.002
293.359
293.241
293.213
293.33
293.407
293.676
295.12
300.53
295.118
293.673
293.403
293.328
293.635
293.821
294.426
297.289
305.178
297.287
294.422
293.816
293.633
294.38
294.795
296.067
301.194
312.154
301.191
296.062
294.79
294.377
296.026
296.878
299.342
307.667
322.025
307.663
299.337
296.872
296.023
299.276
300.842
305.16
317.923
336.205
317.919
305.155
300.835
299.273
304.97
307.712
315.209
332.917
353.169
332.912
315.203
307.704
304.966
313.924
318.212
328.958
355.28
384.842
355.274
328.951
318.203
313.919
326.044
332.541
356.085
401.169
415.931
401.164
356.076
332.532
326.037
340.988
353.66
389.374
408.147
399.374
408.144
389.366
353.649
340.98
358.784
377.845
409.234
403.888
399.017
403.887
409.228
377.834
358.775
378.607
400.537
420.208
400.457
398.268
400.456
420.203
400.526
378.597
399.737
421.697
428.939
398.805
397.61
398.804
428.934
421.685
399.726
421.891
442.33
438.012
398.551
396.999
398.551
438.006
442.317
421.879
444.949
463.04
447.904
399.299
396.523
399.299
447.898
463.027
444.936
468.761
483.984
458.497
400.835
396.251
400.834
458.491
483.971
468.747
493.094
505.055
469.55
403.034
396.224
403.033
469.544
505.041
493.08
517.649
526.016
480.807
405.819
396.472
405.818
480.8
526.002
517.634
542.08
546.56
492.004
409.131
397.027
409.13
491.998
546.546
542.065
566.021
566.335
502.888
412.984
397.98
412.983
502.882
566.321
566.005
589.091
584.942
513.159
417.34
399.299
417.339
513.153
584.928
589.075
610.908
602.044
523.141
423.281
402.183
423.28
523.134
602.031
610.891
631.153
617.519
532.649
429.916
405.103
429.915
532.643
617.506
631.137
649.54
632.017
547.667
449.316
422.553
449.315
547.661
632.005
649.523
667.97
647.654
562.602
461.32
430.519
461.318
562.596
647.642
667.953
690.232
671.988
585.383
459.776
413.696
459.774
585.376
671.976
690.214
734.132
726.226
667.295
521.881
422.133
521.878
667.286
726.212
734.114
293.15
293.15
293.155
293.155
293.549
293.155
293.154
293.15
293.15
293.151
293.151
293.157
293.158
293.604
293.158
293.156
293.15
293.15
293.152
293.151
293.162
293.166
293.769
293.165
293.161
293.15
293.151
293.153
293.153
293.172
293.193
294.124
293.192
293.171
293.151
293.152
293.156
293.157
293.193
293.284
294.809
293.283
293.191
293.155
293.155
293.163
293.171
293.24
293.536
296.04
293.534
293.237
293.168
293.161
293.185
293.212
293.355
294.129
298.121
294.126
293.352
293.209
293.181
293.245
293.325
293.644
295.364
301.443
295.362
293.64
293.32
293.241
293.407
293.609
294.328
297.696
306.492
297.693
294.323
293.604
293.402
293.82
294.288
295.804
301.735
313.816
301.731
295.799
294.281
293.815
294.795
295.775
298.691
308.217
324.002
308.213
298.686
295.768
294.788
296.878
298.728
303.831
317.953
337.538
317.948
303.824
298.72
296.871
300.842
304.022
312.158
331.647
354.923
331.641
312.151
304.013
300.834
307.711
312.645
324.805
350.238
375.933
350.231
324.797
312.636
307.703
318.211
325.457
341.998
372.177
400.059
372.169
341.988
325.447
318.201
332.541
342.288
365.069
406.215
432.623
406.208
365.058
342.276
332.53
353.659
363.401
393.919
427.425
421.277
427.419
393.908
363.388
353.647
377.844
387.37
419.393
430.003
408.739
429.999
419.382
387.355
377.831
400.536
411.452
439.596
430.395
403.946
430.392
439.585
411.437
400.522
421.695
434.837
457.298
433.124
403.656
433.121
457.288
434.821
421.681
442.329
457.738
474.35
438.344
405.926
438.341
474.339
457.721
442.314
463.039
480.418
491.32
445.195
409.685
445.192
491.309
480.401
463.024
483.983
502.942
508.224
453.003
414.418
453
508.213
502.925
483.967
505.054
525.207
524.895
461.414
419.936
461.411
524.884
525.19
505.038
526.015
547.021
541.155
470.289
426.238
470.286
541.144
547.003
525.998
546.559
568.143
556.843
479.685
433.498
479.682
556.832
568.126
546.543
566.334
588.337
571.936
490.078
442.384
490.075
571.925
588.319
566.318
584.941
607.204
586.245
502.31
454.082
502.307
586.234
607.187
584.925
602.044
624.823
601.858
520.806
474.088
520.802
601.848
624.807
602.029
617.519
639.052
613.879
544.68
502.423
544.677
613.869
639.037
617.504
632.018
655.609
661.529
628.061
603.965
628.057
661.521
655.595
632.003
647.654
664.746
677.458
658.631
639.6
658.627
677.45
664.734
647.641
671.988
676.316
652.925
591.607
561.927
591.604
652.917
676.304
671.974
726.226
728.351
688.01
550.634
448.949
550.63
688
728.338
726.212
293.154
293.155
293.222
292.968
294.274
292.967
293.221
293.154
293.154
293.154
293.156
293.224
293.005
294.64
293.004
293.223
293.156
293.153
293.157
293.162
293.226
293.124
295.544
293.123
293.225
293.16
293.156
293.161
293.172
293.235
293.449
297.224
293.447
293.233
293.17
293.16
293.17
293.193
293.281
294.185
299.975
294.183
293.279
293.19
293.168
293.189
293.239
293.448
295.636
304.143
295.634
293.445
293.236
293.186
293.237
293.354
293.908
298.216
310.107
298.214
293.905
293.35
293.234
293.361
293.643
294.964
302.438
318.269
302.435
294.96
293.638
293.357
293.675
294.327
297.084
308.889
329.021
308.886
297.079
294.321
293.67
294.425
295.803
300.906
318.18
342.713
318.176
300.901
295.797
294.419
296.065
298.69
307.202
330.863
359.594
330.858
307.195
298.683
296.059
299.341
303.829
316.783
347.339
379.753
347.333
316.775
303.821
299.334
305.159
312.157
330.347
367.684
402.884
367.677
330.338
312.148
305.151
315.208
324.804
348.319
391.659
428.547
391.651
348.309
324.794
315.199
328.956
341.996
370.475
417.66
453.452
417.652
370.464
341.985
328.946
356.082
365.067
395.509
444.319
478.588
444.309
395.497
365.054
356.07
389.371
393.917
421.658
468.646
488.305
468.637
421.644
393.903
389.36
409.232
419.39
447.019
486.516
485.738
486.507
447.005
419.376
409.223
420.207
439.593
470.757
501.804
487.527
501.795
470.742
439.579
420.198
428.938
457.296
493.251
517.122
494.828
517.114
493.236
457.282
428.93
438.01
474.347
514.971
533.038
505.777
533.03
514.956
474.333
438.002
447.903
491.318
536.089
549.231
518.568
549.223
536.073
491.303
447.894
458.496
508.222
556.558
565.305
532.121
565.297
556.542
508.207
458.488
469.549
524.893
576.257
580.97
545.909
580.963
576.242
524.879
469.54
480.806
541.154
595.071
596.124
559.782
596.116
595.056
541.14
480.797
492.004
556.842
612.923
610.87
573.96
610.863
612.908
556.828
491.995
502.889
571.936
629.886
625.653
589.225
625.645
629.871
571.922
502.879
513.16
586.246
645.997
641.556
607.434
641.549
645.983
586.232
513.151
523.142
601.86
663.396
661.616
633.12
661.609
663.382
601.847
523.133
532.651
613.881
679.036
692.203
675.935
692.197
679.024
613.869
532.642
547.67
661.532
766.281
783.694
787.869
783.69
766.274
661.521
547.661
562.606
677.461
677.452
562.597
585.386
652.928
677.971
650.869
620.922
650.865
677.963
652.919
585.377
667.297
688.012
693.752
617.863
539.575
617.858
693.742
688.002
667.288
702.079
616.52
522.827
616.514
702.068
707.065
620.031
521.775
620.025
707.054
710.53
623.527
524.29
623.52
710.519
713.357
626.584
527.545
626.578
713.347
715.889
629.371
530.94
629.364
715.879
718.257
632.023
534.368
632.016
718.246
720.508
634.604
537.813
634.598
720.498
722.665
637.15
541.29
637.144
722.655
724.728
639.645
544.751
639.639
724.718
726.751
642.214
548.407
642.207
726.742
728.5
644.356
551.393
644.35
728.491
731.308
648.287
557.249
648.281
731.299
293.13
293.155
292.968
297.475
316.077
297.473
292.966
293.154
293.13
293.131
293.158
293.004
298.149
317.877
298.147
293.003
293.156
293.13
293.13
293.165
293.124
299.747
321.724
299.745
293.122
293.163
293.129
293.136
293.192
293.448
302.542
327.737
302.539
293.446
293.19
293.134
293.162
293.283
294.183
306.861
335.978
306.858
294.181
293.28
293.16
293.248
293.534
295.635
313.076
346.518
313.072
295.632
293.531
293.245
293.474
294.126
298.215
321.573
359.428
321.569
298.211
294.123
293.471
294.001
295.362
302.436
332.717
374.772
332.712
302.432
295.358
293.997
295.118
297.694
308.887
346.809
392.579
346.804
308.882
297.688
295.113
297.287
301.732
318.178
364.049
412.818
364.043
318.172
301.726
297.282
301.191
308.214
330.861
384.482
435.356
384.475
330.854
308.207
301.185
307.664
317.95
347.337
407.939
459.916
407.931
347.328
317.942
307.657
317.92
331.643
367.682
433.947
485.974
433.938
367.672
331.634
317.912
332.913
350.234
391.656
461.597
512.704
461.587
391.645
350.223
332.904
355.276
372.172
417.657
489.4
538.588
489.389
417.645
372.161
355.266
401.164
406.21
444.315
514.884
561.454
514.873
444.302
406.197
401.153
408.145
427.421
468.642
536.592
579.479
536.58
468.628
427.41
408.141
403.888
430.001
486.511
555.961
593.544
555.949
486.497
429.993
403.886
400.457
430.393
501.8
574.784
607.491
574.772
501.785
430.387
400.457
398.805
433.123
517.119
593.462
622.26
593.45
517.104
433.117
398.805
398.552
438.342
533.035
611.863
637.514
611.851
533.021
438.337
398.551
399.3
445.194
549.228
629.732
652.709
629.72
549.213
445.188
399.299
400.836
453.002
565.302
646.863
667.473
646.851
565.288
452.996
400.835
403.035
461.414
580.969
663.104
681.583
663.092
580.954
461.407
403.033
405.82
470.289
596.123
678.428
694.988
678.417
596.109
470.283
405.818
409.132
479.686
610.87
692.932
707.795
692.921
610.856
479.68
409.13
412.985
490.08
625.653
706.9
720.321
706.889
625.64
490.073
412.983
417.342
502.313
641.557
721.069
733.321
721.06
641.545
502.306
417.34
423.284
520.809
661.618
736.768
748.193
736.759
661.606
520.802
423.281
429.919
544.685
692.205
759.455
769.203
759.449
692.194
544.677
429.917
449.32
628.065
783.695
792.851
798.726
792.848
783.69
628.058
449.317
461.324
658.635
658.629
461.321
459.781
591.611
650.874
677.627
663.946
677.622
650.868
591.606
459.777
521.886
550.639
617.867
663.499
642.287
663.493
617.861
550.634
521.882
616.524
656.186
631.652
656.18
616.517
620.035
654.491
628.623
654.485
620.028
623.531
655.019
628.696
655.013
623.524
626.589
656.308
629.877
656.302
626.581
629.375
657.828
631.43
657.821
629.368
632.027
659.406
633.105
659.4
632.02
634.609
660.989
634.818
660.983
634.601
637.154
662.566
636.551
662.559
637.147
639.65
664.116
638.273
664.11
639.643
642.218
665.718
640.088
665.712
642.211
644.36
667.06
641.578
667.054
644.353
648.292
669.527
644.47
669.521
648.285
293.33
293.547
294.272
316.074
367.789
316.071
294.271
293.546
293.33
293.355
293.603
294.638
317.874
370.664
317.871
294.636
293.601
293.354
293.444
293.767
295.542
321.721
376.4
321.718
295.539
293.765
293.443
293.629
294.121
297.222
327.734
384.78
327.73
297.219
294.119
293.627
293.977
294.806
299.972
335.975
395.493
335.971
299.969
294.803
293.975
294.604
296.037
304.139
346.515
408.298
346.51
304.136
296.034
294.601
295.698
298.117
310.103
359.425
423.039
359.42
310.099
298.113
295.695
297.539
301.439
318.265
374.768
439.623
374.762
318.26
301.435
297.536
300.526
306.488
329.017
392.575
457.977
392.569
329.011
306.483
300.522
305.174
313.811
342.708
412.814
478.011
412.807
342.702
313.805
305.169
312.149
323.997
359.589
435.352
499.579
435.344
359.581
323.991
312.144
322.02
337.532
379.747
459.911
522.437
459.903
379.739
337.525
322.014
336.2
354.916
402.878
485.969
546.194
485.961
402.869
354.908
336.193
353.163
375.926
428.54
512.699
570.241
512.69
428.53
375.917
353.156
384.835
400.051
453.445
538.583
593.715
538.574
453.434
400.041
384.826
415.928
432.616
478.581
561.449
615.236
561.439
478.569
432.606
415.922
399.374
421.274
488.298
579.474
633.765
579.464
488.287
421.269
399.374
399.018
408.738
485.733
593.539
649.934
593.528
485.723
408.736
399.018
398.268
403.946
487.522
607.486
664.758
607.475
487.513
403.945
398.268
397.61
403.656
494.823
622.256
678.7
622.244
494.815
403.654
397.61
396.999
405.926
505.773
637.51
691.941
637.499
505.764
405.925
396.999
396.523
409.685
518.565
652.706
704.539
652.694
518.556
409.683
396.523
396.251
414.418
532.118
667.469
716.5
667.458
532.109
414.416
396.251
396.225
419.937
545.907
681.58
727.809
681.569
545.897
419.935
396.224
396.474
426.239
559.78
694.986
738.464
694.975
559.771
426.237
396.473
397.028
433.499
573.959
707.794
748.488
707.784
573.949
433.496
397.028
397.981
442.386
589.226
720.32
757.959
720.311
589.216
442.382
397.981
399.301
454.085
607.436
733.321
767.083
733.312
607.426
454.081
399.3
402.186
474.092
633.122
748.193
776.315
748.185
633.113
474.088
402.185
405.107
502.428
675.938
769.205
787.054
769.198
675.929
502.422
405.106
422.557
603.969
787.872
798.727
806.147
798.724
787.867
603.964
422.555
430.524
639.604
639.6
430.522
413.7
561.932
620.928
663.951
683.325
663.947
620.924
561.929
413.699
422.138
448.954
539.581
642.293
682.607
642.289
539.578
448.952
422.137
522.833
631.658
681.449
631.654
522.83
521.781
628.628
680.924
628.625
521.778
524.296
628.702
680.91
628.698
524.293
527.551
629.883
681.156
629.879
527.548
530.946
631.436
681.516
631.432
530.944
534.374
633.11
681.928
633.107
534.372
537.819
634.823
682.369
634.82
537.817
541.296
636.557
682.835
636.554
541.294
544.757
638.279
683.315
638.276
544.754
548.413
640.094
683.854
640.091
548.411
551.399
641.584
684.298
641.581
551.397
557.255
644.476
685.251
644.473
557.253
293.13
293.154
292.966
297.471
316.07
297.47
292.965
293.153
293.13
293.13
293.156
293.002
298.145
317.87
298.144
293.001
293.156
293.13
293.129
293.163
293.121
299.742
321.716
299.741
293.12
293.162
293.129
293.134
293.19
293.445
302.536
327.728
302.535
293.444
293.189
293.134
293.161
293.28
294.18
306.855
335.969
306.853
294.178
293.279
293.16
293.246
293.531
295.631
313.069
346.508
313.067
295.629
293.529
293.245
293.472
294.123
298.21
321.565
359.417
321.563
298.208
294.121
293.47
293.999
295.358
302.431
332.708
374.76
332.705
302.428
295.356
293.996
295.115
297.689
308.881
346.799
392.566
346.796
308.878
297.686
295.112
297.283
301.726
318.171
364.038
412.804
364.034
318.168
301.723
297.28
301.186
308.208
330.853
384.469
435.341
384.465
330.849
308.204
301.183
307.659
317.943
347.327
407.925
459.9
407.92
347.322
317.938
307.655
317.914
331.635
367.671
433.932
485.958
433.926
367.665
331.63
317.91
332.906
350.225
391.644
461.581
512.687
461.575
391.638
350.219
332.901
355.268
372.162
417.644
489.383
538.571
489.376
417.637
372.156
355.262
401.157
406.2
444.302
514.867
561.436
514.86
444.294
406.192
401.15
408.142
427.413
468.629
536.574
579.461
536.567
468.62
427.407
408.139
403.886
429.995
486.499
555.943
593.526
555.936
486.49
429.991
403.886
400.457
430.389
501.789
574.766
607.473
574.758
501.78
430.386
400.457
398.805
433.119
517.108
593.445
622.243
593.437
517.099
433.115
398.805
398.551
438.339
533.024
611.847
637.497
611.839
533.015
438.335
398.551
399.299
445.19
549.217
629.716
652.693
629.708
549.208
445.186
399.299
400.835
452.998
565.292
646.847
667.457
646.839
565.282
452.994
400.835
403.034
461.41
580.959
663.089
681.569
663.081
580.949
461.405
403.033
405.819
470.285
596.113
678.415
694.975
678.407
596.104
470.281
405.818
409.131
479.682
610.86
692.92
707.784
692.912
610.851
479.677
409.13
412.984
490.076
625.644
706.889
720.311
706.882
625.634
490.071
412.983
417.341
502.309
641.549
721.06
733.313
721.053
641.54
502.303
417.34
423.282
520.805
661.61
736.76
748.187
736.754
661.602
520.799
423.281
429.918
544.68
692.199
759.451
769.2
759.446
692.191
544.674
429.916
449.318
628.061
783.693
792.85
798.726
792.848
783.689
628.056
449.316
461.322
658.632
658.627
461.32
459.778
591.608
650.871
677.628
663.952
677.625
650.867
591.605
459.776
521.883
550.635
617.864
663.499
642.293
663.496
617.86
550.632
521.88
616.52
656.186
631.659
656.184
616.518
620.031
654.491
628.629
654.49
620.029
623.527
655.019
628.702
655.02
623.525
626.584
656.308
629.883
656.308
626.582
629.371
657.828
631.437
657.829
629.369
632.023
659.406
633.111
659.407
632.021
634.604
660.989
634.824
660.99
634.603
637.151
662.566
636.558
662.567
637.149
639.646
664.116
638.281
664.118
639.644
642.214
665.718
640.096
665.72
642.213
644.357
667.06
641.586
667.062
644.355
648.289
669.528
644.477
669.529
648.287
293.154
293.154
293.221
292.965
294.27
292.965
293.22
293.154
293.154
293.153
293.155
293.222
293.002
294.635
293.001
293.221
293.155
293.153
293.156
293.16
293.224
293.12
295.539
293.12
293.223
293.16
293.156
293.16
293.17
293.232
293.444
297.218
293.444
293.231
293.169
293.16
293.168
293.19
293.277
294.179
299.968
294.178
293.276
293.189
293.167
293.186
293.235
293.443
295.63
304.134
295.629
293.442
293.234
293.185
293.233
293.349
293.903
298.209
310.098
298.208
293.902
293.348
293.232
293.357
293.637
294.958
302.429
318.259
302.428
294.956
293.636
293.356
293.67
294.32
297.076
308.879
329.009
308.878
297.075
294.318
293.668
294.419
295.796
300.897
318.169
342.7
318.167
300.896
295.794
294.417
296.059
298.682
307.192
330.851
359.58
330.848
307.189
298.679
296.057
299.334
303.82
316.772
347.325
379.737
347.322
316.769
303.817
299.331
305.151
312.147
330.334
367.668
402.867
367.665
330.331
312.143
305.148
315.199
324.792
348.305
391.641
428.528
391.638
348.301
324.788
315.195
328.946
341.983
370.459
417.641
453.432
417.637
370.455
341.979
328.942
356.071
365.053
395.492
444.298
478.567
444.294
395.487
365.048
356.066
389.361
393.902
421.639
468.624
488.285
468.62
421.634
393.896
389.356
409.223
419.376
446.999
486.494
485.722
486.49
446.994
419.37
409.22
420.199
439.58
470.737
501.783
487.512
501.78
470.731
439.573
420.196
428.93
457.282
493.231
517.102
494.814
517.099
493.225
457.276
428.927
438.003
474.334
514.951
533.019
505.764
533.016
514.945
474.328
437.999
447.895
491.304
536.069
549.212
518.556
549.208
536.062
491.298
447.892
458.489
508.209
556.539
565.286
532.109
565.283
556.532
508.202
458.485
469.542
524.88
576.239
580.953
545.898
580.95
576.232
524.873
469.537
480.799
541.142
595.054
596.108
559.772
596.105
595.047
541.135
480.794
491.997
556.83
612.907
610.856
573.951
610.852
612.9
556.823
491.993
502.881
571.924
629.871
625.64
589.218
625.636
629.864
571.917
502.877
513.153
586.235
645.984
641.546
607.428
641.542
645.977
586.228
513.148
523.135
601.85
663.384
661.608
633.116
661.604
663.377
601.843
523.131
532.644
613.872
679.027
692.197
675.932
692.194
679.02
613.865
532.64
547.663
661.525
766.278
783.693
787.87
783.691
766.275
661.52
547.659
562.599
677.455
677.451
562.595
585.38
652.922
677.969
650.872
620.928
650.87
677.965
652.918
585.376
667.292
688.007
693.749
617.865
539.581
617.863
693.745
688.003
667.289
702.075
616.522
522.834
616.521
702.071
707.062
620.033
521.782
620.032
707.058
710.527
623.529
524.297
623.528
710.523
713.355
626.586
527.552
626.586
713.35
715.887
629.373
530.947
629.372
715.883
718.255
632.025
534.375
632.024
718.25
720.506
634.606
537.82
634.606
720.502
722.663
637.153
541.298
637.152
722.659
724.727
639.648
544.758
639.647
724.723
726.75
642.216
548.415
642.216
726.746
728.499
644.359
551.401
644.358
728.496
731.308
648.291
557.257
648.29
731.304
293.15
293.149
293.154
293.154
293.546
293.153
293.154
293.149
293.15
293.15
293.15
293.155
293.156
293.601
293.156
293.155
293.149
293.15
293.151
293.15
293.16
293.163
293.765
293.162
293.16
293.149
293.151
293.152
293.15
293.169
293.189
294.119
293.189
293.169
293.15
293.152
293.154
293.154
293.189
293.279
294.803
293.279
293.189
293.153
293.154
293.16
293.166
293.235
293.53
296.033
293.529
293.234
293.166
293.16
293.18
293.207
293.349
294.121
298.113
294.121
293.348
293.206
293.18
293.24
293.318
293.637
295.356
301.434
295.356
293.636
293.317
293.238
293.401
293.602
294.319
297.687
306.482
297.686
294.318
293.6
293.4
293.813
294.279
295.795
301.724
313.805
301.723
295.794
294.277
293.812
294.787
295.765
298.681
308.205
323.99
308.204
298.679
295.763
294.785
296.869
298.717
303.819
317.94
337.524
317.938
303.817
298.715
296.867
300.832
304.01
312.145
331.632
354.907
331.63
312.143
304.007
300.83
307.701
312.632
324.791
350.221
375.916
350.219
324.788
312.63
307.698
318.2
325.443
341.982
372.158
400.04
372.156
341.979
325.44
318.197
332.528
342.273
365.051
406.195
432.605
406.192
365.048
342.269
332.525
353.645
363.385
393.9
427.409
421.269
427.407
393.897
363.381
353.641
377.83
387.352
419.373
429.992
408.736
429.991
419.37
387.347
377.826
400.522
411.433
439.577
430.387
403.945
430.386
439.574
411.428
400.517
421.68
434.817
457.28
433.117
403.655
433.116
457.276
434.812
421.675
442.313
457.718
474.332
438.337
405.925
438.335
474.328
457.712
442.308
463.023
480.397
491.302
445.188
409.683
445.187
491.298
480.392
463.018
483.967
502.922
508.206
452.996
414.417
452.995
508.203
502.916
483.962
505.038
525.188
524.878
461.408
419.935
461.407
524.874
525.182
505.032
525.999
547.002
541.139
470.283
426.238
470.282
541.136
546.996
525.993
546.544
568.125
556.828
479.68
433.497
479.679
556.824
568.12
546.538
566.32
588.32
571.923
490.074
442.384
490.073
571.919
588.314
566.314
584.928
607.189
586.234
502.307
454.083
502.306
586.23
607.183
584.922
602.032
624.81
601.849
520.804
474.09
520.803
601.845
624.804
602.026
617.508
639.041
613.871
544.679
502.426
544.678
613.868
639.036
617.503
632.008
655.6
661.525
628.061
603.968
628.059
661.522
655.596
632.003
647.646
664.739
677.456
658.632
639.603
658.631
677.453
664.735
647.642
671.981
676.31
652.923
591.609
561.932
591.608
652.92
676.306
671.975
726.22
728.346
688.008
550.637
448.955
550.636
688.005
728.343
726.218
293.15
293.15
293.154
293.13
293.329
293.13
293.154
293.15
293.15
293.15
293.15
293.153
293.13
293.354
293.13
293.153
293.15
293.15
293.15
293.151
293.156
293.129
293.442
293.129
293.156
293.151
293.15
293.151
293.152
293.16
293.134
293.627
293.134
293.16
293.152
293.151
293.153
293.154
293.167
293.16
293.975
293.16
293.167
293.154
293.152
293.157
293.16
293.185
293.245
294.601
293.245
293.185
293.16
293.156
293.17
293.18
293.233
293.471
295.694
293.47
293.232
293.18
293.169
293.211
293.239
293.356
293.997
297.535
293.996
293.356
293.238
293.21
293.327
293.401
293.669
295.113
300.522
295.112
293.669
293.4
293.325
293.631
293.813
294.418
297.281
305.169
297.28
294.417
293.812
293.629
294.375
294.787
296.058
301.184
312.144
301.183
296.057
294.785
294.373
296.021
296.869
299.332
307.656
322.014
307.655
299.331
296.867
296.018
299.27
300.832
305.149
317.911
336.193
317.91
305.148
300.83
299.268
304.963
307.701
315.197
332.903
353.155
332.902
315.195
307.698
304.96
313.916
318.199
328.945
355.264
384.825
355.262
328.943
318.197
313.913
326.035
332.528
356.069
401.152
415.921
401.15
356.066
332.525
326.031
340.978
353.644
389.359
408.14
399.374
408.139
389.356
353.641
340.974
358.772
377.829
409.222
403.886
399.018
403.886
409.22
377.826
358.768
378.594
400.52
420.198
400.457
398.268
400.457
420.196
400.517
378.59
399.724
421.679
428.929
398.805
397.61
398.805
428.927
421.676
399.719
421.877
442.312
438.001
398.552
396.999
398.551
438
442.308
421.872
444.934
463.022
447.894
399.299
396.523
399.299
447.892
463.018
444.929
468.745
483.966
458.487
400.835
396.251
400.835
458.486
483.962
468.74
493.078
505.037
469.54
403.034
396.225
403.034
469.538
505.033
493.073
517.633
525.998
480.797
405.818
396.474
405.818
480.795
525.994
517.627
542.064
546.543
491.995
409.131
397.028
409.131
491.994
546.539
542.059
566.005
566.318
502.88
412.984
397.982
412.984
502.878
566.314
565.999
589.075
584.927
513.152
417.341
399.301
417.341
513.15
584.923
589.07
610.893
602.031
523.135
423.283
402.186
423.283
523.133
602.027
610.887
631.139
617.507
532.644
429.918
405.107
429.918
532.643
617.504
631.134
649.526
632.007
547.663
449.319
422.557
449.319
547.662
632.004
649.521
667.957
647.645
562.599
461.323
430.524
461.322
562.598
647.643
667.953
690.219
671.979
585.38
459.779
413.701
459.779
585.379
671.976
690.215
734.121
726.22
667.293
521.885
422.139
521.884
667.291
726.218
734.122
)
;

boundaryField
{
    injectionXMinus
    {
        type            uniformFixedValue;
        uniformValue    uniform 400;
        value           uniform 400;
    }
    injectionXPlus
    {
        type            uniformFixedValue;
        uniformValue    uniform 400;
        value           uniform 400;
    }
    injectionYMinus
    {
        type            uniformFixedValue;
        uniformValue    uniform 400;
        value           uniform 400;
    }
    injectionYPlus
    {
        type            uniformFixedValue;
        uniformValue    uniform 400;
        value           uniform 400;
    }
    inletXMinus
    {
        type            uniformFixedValue;
        uniformValue    uniform 293.15;
        value           uniform 293.15;
    }
    inletXPlus
    {
        type            uniformFixedValue;
        uniformValue    uniform 293.15;
        value           uniform 293.15;
    }
    inletYMinus
    {
        type            uniformFixedValue;
        uniformValue    uniform 293.15;
        value           uniform 293.15;
    }
    inletYPlus
    {
        type            uniformFixedValue;
        uniformValue    uniform 293.15;
        value           uniform 293.15;
    }
    outlet
    {
        type            zeroGradient;
    }
    valve
    {
        type            zeroGradient;
    }
    walls
    {
        type            zeroGradient;
    }
}


// ************************************************************************* //
