/*--------------------------------*- C++ -*----------------------------------*\
  =========                 |
  \\      /  F ield         | OpenFOAM: The Open Source CFD Toolbox
   \\    /   O peration     | Website:  https://openfoam.org
    \\  /    A nd           | Version:  6
     \\/     M anipulation  |
\*---------------------------------------------------------------------------*/
FoamFile
{
    version     2.0;
    format      ascii;
    class       volScalarField;
    location    "0.1";
    object      alpha_gas;
}
// * * * * * * * * * * * * * * * * * * * * * * * * * * * * * * * * * * * * * //

dimensions      [0 0 0 0 0 0 0];

internalField   nonuniform List<scalar> 
3029
(
-9.34689e-24
-1.52081e-23
-6.19215e-23
-2.40243e-22
-8.92801e-22
-2.40232e-22
-6.19172e-23
-1.5207e-23
-9.34629e-24
-1.507e-22
-3.97426e-22
-2.13489e-21
-9.40385e-21
-2.94649e-20
-9.40341e-21
-2.13475e-21
-3.97396e-22
-1.50691e-22
-4.32987e-21
-1.58846e-20
-8.65602e-20
-4.22179e-19
-1.1147e-18
-4.2216e-19
-8.65544e-20
-1.58834e-20
-4.32963e-21
-2.5194e-19
-8.76157e-19
-4.48448e-18
-1.81107e-17
-4.33998e-17
-1.811e-17
-4.48419e-18
-8.76088e-19
-2.51926e-19
-1.14562e-17
-3.93858e-17
-1.94597e-16
-7.22057e-16
-1.67264e-15
-7.22028e-16
-1.94585e-16
-3.93828e-17
-1.14556e-17
-4.43392e-16
-1.54759e-15
-7.57965e-15
-2.71281e-14
-6.26145e-14
-2.71271e-14
-7.57918e-15
-1.54747e-15
-4.43368e-16
-1.54551e-14
-5.549e-14
-2.73303e-13
-9.63148e-13
-2.24499e-12
-9.63112e-13
-2.73287e-13
-5.54857e-14
-1.54542e-14
-4.97064e-13
-1.84791e-12
-9.19952e-12
-3.21103e-11
-7.59401e-11
-3.21092e-11
-9.19898e-12
-1.84776e-12
-4.97039e-13
-1.48115e-11
-5.71862e-11
-2.87367e-10
-9.89808e-10
-2.37262e-09
-9.89775e-10
-2.87351e-10
-5.71819e-11
-1.48107e-11
-4.04812e-10
-1.62307e-09
-8.17063e-09
-2.74114e-08
-6.61284e-08
-2.74106e-08
-8.1702e-09
-1.62294e-09
-4.04793e-10
-9.90336e-09
-4.10207e-08
-2.03375e-07
-6.46e-07
-1.54092e-06
-6.45983e-07
-2.03365e-07
-4.10177e-08
-9.90292e-09
-2.06809e-07
-8.69223e-07
-4.08749e-06
-1.15066e-05
-2.58994e-05
-1.15064e-05
-4.08734e-06
-8.69172e-07
-2.06801e-07
-3.31743e-06
-1.34222e-05
-5.40671e-05
-0.000105756
-0.00017953
-0.000105755
-5.40659e-05
-1.34216e-05
-3.31733e-06
-3.15702e-05
-9.69258e-05
-0.000162268
0.000618404
0.00207825
0.000618384
-0.000162274
-9.69239e-05
-3.15696e-05
-3.93728e-05
0.00032686
0.000923549
-0.0092829
-0.0326043
-0.00928268
0.000923595
0.000326851
-3.93731e-05
-1.59101e-05
-0.00412266
-0.0285241
0.0266715
0.336848
0.0266705
-0.028524
-0.00412253
-1.59034e-05
-0.00399414
-0.0122761
0.0978616
0.632632
0.99061
0.63263
0.0978602
-0.012276
-0.00399407
-0.00904829
0.00154264
0.283418
0.901611
1.02561
0.90161
0.283416
0.00154232
-0.00904817
-0.0100274
0.0188557
0.349897
0.924902
1.02044
0.9249
0.349893
0.018855
-0.0100272
-0.00796282
0.0277758
0.330043
0.824647
0.93909
0.824645
0.330039
0.027775
-0.00796273
-0.00529075
0.0288396
0.275676
0.677247
0.79733
0.677245
0.275673
0.0288387
-0.00529068
-0.0031107
0.0260318
0.217615
0.532122
0.641297
0.53212
0.217612
0.0260312
-0.00311066
-0.00158685
0.0220465
0.16709
0.407574
0.498656
0.407572
0.167088
0.022046
-0.00158685
-0.000610464
0.0180575
0.126267
0.306825
0.379051
0.306823
0.126265
0.0180572
-0.000610494
-3.43554e-05
0.0145041
0.0944606
0.228008
0.283351
0.228007
0.0944593
0.014504
-3.44076e-05
0.000268115
0.011518
0.0702308
0.167731
0.209041
0.16773
0.0702299
0.011518
0.00026805
0.000395101
0.00910333
0.0520789
0.122428
0.152614
0.122427
0.0520783
0.00910351
0.000395033
0.000422225
0.00720922
0.0386556
0.0888773
0.110571
0.0888769
0.0386553
0.00720948
0.000422161
0.00041103
0.00575569
0.0287859
0.0643295
0.079786
0.0643293
0.0287858
0.00575602
0.000410979
0.000405625
0.00463143
0.0214086
0.0464315
0.0574912
0.0464314
0.0214086
0.00463182
0.000405591
0.000378806
0.00359945
0.0155006
0.0329096
0.0407789
0.0329095
0.0155007
0.00359989
0.000378791
0.000246303
0.00243463
0.0110343
0.0245503
0.0310485
0.0245502
0.0110343
0.00243509
0.000246312
5.03669e-05
0.00114634
0.00678194
0.0178169
0.024149
0.0178166
0.00678193
0.00114677
5.03912e-05
-0.000152312
-1.04344e-05
0.00221457
0.00882249
0.014082
0.00882223
0.00221461
-1.01263e-05
-0.000152286
-1.52081e-23
-1.95801e-23
-6.16252e-23
-2.48731e-22
-7.6414e-22
-2.48717e-22
-6.16194e-23
-1.95778e-23
-1.52067e-23
-3.97428e-22
-5.26703e-22
-1.82849e-21
-7.52874e-21
-2.052e-20
-7.52836e-21
-1.82836e-21
-5.26663e-22
-3.97405e-22
-1.58847e-20
-1.93334e-20
-6.25134e-20
-2.58243e-19
-6.44715e-19
-2.5823e-19
-6.25093e-20
-1.93322e-20
-1.58839e-20
-8.76162e-19
-8.04662e-19
-2.4024e-18
-9.20669e-18
-2.19684e-17
-9.20627e-18
-2.40225e-18
-8.04617e-19
-8.76126e-19
-3.93861e-17
-3.0308e-17
-8.78892e-17
-3.27789e-16
-7.75369e-16
-3.27774e-16
-8.78834e-17
-3.03064e-17
-3.93846e-17
-1.5476e-15
-1.05895e-15
-3.07556e-15
-1.14596e-14
-2.74126e-14
-1.14591e-14
-3.07536e-15
-1.0589e-15
-1.54755e-15
-5.54904e-14
-3.48208e-14
-1.02858e-13
-3.87485e-13
-9.46836e-13
-3.87468e-13
-1.02851e-13
-3.4819e-14
-5.54885e-14
-1.84792e-12
-1.07845e-12
-3.26318e-12
-1.24732e-11
-3.12721e-11
-1.24727e-11
-3.26297e-12
-1.0784e-12
-1.84786e-12
-5.71866e-11
-3.11753e-11
-9.68658e-11
-3.74795e-10
-9.6457e-10
-3.74781e-10
-9.68597e-11
-3.11737e-11
-5.71849e-11
-1.62308e-09
-8.25677e-10
-2.63082e-09
-1.02131e-08
-2.6877e-08
-1.02127e-08
-2.63066e-09
-8.25635e-10
-1.62303e-09
-4.1021e-08
-1.94047e-08
-6.29387e-08
-2.4026e-07
-6.38937e-07
-2.40252e-07
-6.2935e-08
-1.94038e-08
-4.10199e-08
-8.69227e-07
-3.81984e-07
-1.23396e-06
-4.41173e-06
-1.14582e-05
-4.41161e-06
-1.23389e-06
-3.81965e-07
-8.69209e-07
-1.34222e-05
-5.52701e-06
-1.66503e-05
-4.74742e-05
-0.000102842
-4.74736e-05
-1.66497e-05
-5.52678e-06
-1.3422e-05
-9.69259e-05
-4.02934e-05
-7.57551e-05
7.83504e-05
0.00079827
7.83416e-05
-7.57554e-05
-4.02924e-05
-9.69251e-05
0.00032686
8.35467e-05
0.000508706
-0.000668747
-0.00975924
-0.000668673
0.000508706
8.35439e-05
0.000326857
-0.00412265
-0.000859693
-0.0081442
-0.0226535
0.0268873
-0.0226536
-0.00814406
-0.000859665
-0.0041226
-0.0122761
-0.00637392
0.00631354
0.194085
0.549533
0.194084
0.00631324
-0.0063738
-0.012276
0.00154259
-0.00742072
0.0604897
0.430193
0.810513
0.430191
0.0604885
-0.00742063
0.00154249
0.0188556
-0.00213183
0.0955302
0.492762
0.815952
0.492759
0.0955285
-0.00213183
0.0188553
0.0277756
0.00385478
0.101518
0.450002
0.716934
0.45
0.101516
0.0038547
0.0277754
0.0288393
0.00769402
0.0915419
0.371231
0.58486
0.371229
0.09154
0.00769387
0.028839
0.0260316
0.00937974
0.076689
0.29204
0.458014
0.292038
0.0766875
0.00937953
0.0260313
0.0220462
0.00963457
0.0619633
0.224129
0.34956
0.224127
0.0619622
0.00963432
0.0220459
0.0180572
0.00907136
0.0490365
0.169314
0.262204
0.169312
0.0490357
0.00907112
0.018057
0.0145038
0.0081045
0.0382672
0.126345
0.193937
0.126344
0.0382668
0.00810429
0.0145036
0.0115177
0.0069978
0.0295542
0.0932158
0.141543
0.0932151
0.0295541
0.00699764
0.0115175
0.00910312
0.0059145
0.0226414
0.0679015
0.101735
0.0679011
0.0226416
0.0059144
0.00910294
0.00720903
0.004955
0.0172198
0.0485786
0.0715603
0.0485784
0.0172202
0.00495497
0.00720887
0.00575552
0.00418245
0.01295
0.0336532
0.0484975
0.0336531
0.0129505
0.0041825
0.00575538
0.00463129
0.00362522
0.00944239
0.0217849
0.0305335
0.021785
0.00944302
0.00362536
0.00463118
0.00359934
0.00303252
0.00551041
0.0109319
0.0148187
0.0109321
0.00551108
0.00303278
0.00359925
0.00243455
0.00235978
0.00415107
0.00785239
0.0104419
0.00785246
0.0041519
0.0023601
0.00243449
0.00114629
0.0012605
0.00379515
0.00995029
0.0139321
0.00995018
0.00379575
0.0012608
0.00114627
-1.045e-05
-6.36544e-05
0.00157708
0.00748358
0.0123787
0.00748335
0.00157735
-6.34088e-05
-1.04565e-05
-6.19217e-23
-6.16254e-23
-8.21511e-23
-2.0803e-22
-5.17817e-22
-2.08012e-22
-8.21384e-23
-6.16186e-23
-6.19174e-23
-2.1349e-21
-1.8285e-21
-1.98565e-21
-4.69666e-21
-1.09407e-20
-4.69641e-21
-1.9855e-21
-1.82839e-21
-2.13481e-21
-8.65605e-20
-6.25138e-20
-5.42725e-20
-1.22452e-19
-2.76987e-19
-1.22447e-19
-5.42701e-20
-6.25115e-20
-8.65574e-20
-4.4845e-18
-2.40242e-18
-1.60932e-18
-3.49023e-18
-7.91416e-18
-3.4901e-18
-1.60928e-18
-2.40235e-18
-4.48435e-18
-1.94598e-16
-8.78898e-17
-4.84634e-17
-1.05589e-16
-2.45419e-16
-1.05586e-16
-4.84626e-17
-8.7888e-17
-1.94592e-16
-7.57968e-15
-3.07558e-15
-1.47246e-15
-3.29901e-15
-7.94233e-15
-3.2989e-15
-1.47244e-15
-3.07553e-15
-7.57945e-15
-2.73304e-13
-1.02858e-13
-4.43743e-14
-1.03378e-13
-2.59044e-13
-1.03375e-13
-4.43739e-14
-1.02857e-13
-2.73297e-13
-9.19954e-12
-3.2632e-12
-1.29718e-12
-3.16098e-12
-8.26314e-12
-3.16087e-12
-1.29716e-12
-3.26316e-12
-9.1993e-12
-2.87367e-10
-9.68665e-11
-3.5892e-11
-9.18368e-11
-2.50589e-10
-9.18336e-11
-3.58916e-11
-9.68651e-11
-2.87361e-10
-8.17065e-09
-2.63084e-09
-9.1331e-10
-2.45945e-09
-6.99138e-09
-2.45937e-09
-9.13299e-10
-2.63081e-09
-8.17047e-09
-2.03376e-07
-6.29391e-08
-2.05373e-08
-5.81421e-08
-1.70906e-07
-5.81402e-08
-2.0537e-08
-6.29383e-08
-2.03372e-07
-4.08749e-06
-1.23396e-06
-3.8193e-07
-1.12311e-06
-3.33604e-06
-1.12307e-06
-3.81925e-07
-1.23395e-06
-4.08743e-06
-5.40671e-05
-1.66503e-05
-5.12574e-06
-1.48074e-05
-4.07169e-05
-1.48071e-05
-5.12566e-06
-1.66502e-05
-5.40665e-05
-0.000162268
-7.57551e-05
-3.30422e-05
-6.27594e-05
-2.71734e-05
-6.27604e-05
-3.30421e-05
-7.5755e-05
-0.00016227
0.000923553
0.000508707
5.20107e-05
0.000281412
0.000113102
0.000281413
5.20098e-05
0.000508709
0.00092357
-0.0285241
-0.00814419
-0.00108798
-0.00678856
-0.0200328
-0.00678848
-0.00108797
-0.00814417
-0.0285241
0.0978614
0.0063135
-0.00375954
0.00207269
0.0678837
0.00207246
-0.00375952
0.00631347
0.0978608
0.283418
0.0604895
-0.000870247
0.0461085
0.205811
0.0461077
-0.000870299
0.0604893
0.283417
0.349896
0.0955298
0.005867
0.0750012
0.24823
0.0750001
0.00586687
0.0955296
0.349894
0.330042
0.101517
0.0114853
0.0804994
0.229049
0.0804982
0.0114851
0.101517
0.33004
0.275675
0.0915412
0.0144245
0.0729716
0.188761
0.0729705
0.0144242
0.0915408
0.275674
0.217614
0.0766883
0.0151587
0.0612562
0.147712
0.0612552
0.0151584
0.0766879
0.217613
0.167089
0.0619626
0.0145243
0.0494674
0.112523
0.0494668
0.014524
0.0619622
0.167088
0.126266
0.0490358
0.0131503
0.0390587
0.0843273
0.0390583
0.01315
0.0490354
0.126266
0.0944598
0.0382665
0.011447
0.0303249
0.0623697
0.0303249
0.0114468
0.0382662
0.0944593
0.0702301
0.0295536
0.00967416
0.0231497
0.0454354
0.0231499
0.00967405
0.0295534
0.0702298
0.0520782
0.0226409
0.0079817
0.0172879
0.0323431
0.0172882
0.00798168
0.0226407
0.052078
0.0386551
0.0172194
0.00643259
0.0124403
0.0220487
0.0124408
0.00643266
0.0172193
0.0386549
0.0287855
0.0129497
0.00499311
0.0082536
0.0136353
0.00825419
0.00499327
0.0129496
0.0287854
0.0214083
0.00944215
0.00340825
0.00426845
0.00629871
0.00426908
0.00340854
0.00944214
0.0214082
0.0155004
0.00551026
0.000516089
-0.000162104
-0.000595211
-0.000161579
0.000516539
0.0055104
0.0155003
0.011034
0.00415096
0.00415109
0.011034
0.00678178
0.00379504
0.00238633
0.00564242
0.00955428
0.00564238
0.00238689
0.00379513
0.00678175
0.00221449
0.00157701
0.00147933
0.00539048
0.0100095
0.00539038
0.0014798
0.00157706
0.00221447
0.0010838
0.0045802
0.00895413
0.00458009
0.00108446
0.000961753
0.00400555
0.00791584
0.00400538
0.000962457
0.000868072
0.00355314
0.00701645
0.0035529
0.000868758
0.000789196
0.00316992
0.0062312
0.0031696
0.00078984
0.000718199
0.002833
0.00553786
0.00283263
0.000718798
0.000653518
0.00253278
0.00492197
0.00253238
0.000654073
0.000594395
0.00226415
0.00437379
0.00226372
0.000594905
0.00054032
0.0020235
0.00388564
0.00202305
0.000540787
0.000490867
0.00180788
0.00345097
0.00180743
0.000491292
0.00044521
0.00161395
0.00306273
0.0016135
0.000445595
0.000404599
0.00144346
0.00272332
0.00144301
0.000404948
0.000325272
0.0012018
0.00227077
0.00120138
0.000325571
-2.40243e-22
-2.48731e-22
-2.08031e-22
-1.90913e-22
-2.73768e-22
-1.90892e-22
-2.08006e-22
-2.48714e-22
-2.40231e-22
-9.40384e-21
-7.52875e-21
-4.69669e-21
-3.29947e-21
-4.40369e-21
-3.29928e-21
-4.69647e-21
-7.52849e-21
-9.40354e-21
-4.22178e-19
-2.58243e-19
-1.22454e-19
-6.77987e-20
-8.81775e-20
-6.77974e-20
-1.22452e-19
-2.58238e-19
-4.22167e-19
-1.81107e-17
-9.20672e-18
-3.49028e-18
-1.59118e-18
-2.08813e-18
-1.59119e-18
-3.49031e-18
-9.20658e-18
-1.81102e-17
-7.22056e-16
-3.27789e-16
-1.05591e-16
-4.171e-17
-5.63201e-17
-4.1711e-17
-1.05593e-16
-3.27785e-16
-7.22039e-16
-2.71281e-14
-1.14597e-14
-3.29906e-15
-1.17583e-15
-1.64683e-15
-1.17586e-15
-3.29915e-15
-1.14596e-14
-2.71275e-14
-9.63146e-13
-3.87486e-13
-1.0338e-13
-3.41662e-14
-4.98178e-14
-3.41673e-14
-1.03383e-13
-3.87482e-13
-9.63126e-13
-3.21103e-11
-1.24732e-11
-3.16102e-12
-9.85371e-13
-1.49973e-12
-9.85406e-13
-3.1611e-12
-1.24731e-11
-3.21097e-11
-9.89806e-10
-3.74796e-10
-9.18377e-11
-2.7298e-11
-4.34717e-11
-2.72989e-11
-9.18401e-11
-3.74793e-10
-9.89789e-10
-2.74114e-08
-1.02131e-08
-2.45947e-09
-7.032e-10
-1.17369e-09
-7.03223e-10
-2.45953e-09
-1.0213e-08
-2.74109e-08
-6.45999e-07
-2.4026e-07
-5.81425e-08
-1.61755e-08
-2.82719e-08
-1.6176e-08
-5.81436e-08
-2.40259e-07
-6.45991e-07
-1.15066e-05
-4.41173e-06
-1.12311e-06
-3.11585e-07
-5.65063e-07
-3.11593e-07
-1.12313e-06
-4.4117e-06
-1.15065e-05
-0.000105755
-4.74742e-05
-1.48075e-05
-4.41627e-06
-7.98002e-06
-4.41639e-06
-1.48076e-05
-4.7474e-05
-0.000105755
0.000618402
7.83501e-05
-6.27594e-05
-3.18781e-05
-4.46017e-05
-3.18789e-05
-6.27596e-05
7.8349e-05
0.000618395
-0.00928286
-0.000668738
0.000281412
2.58399e-05
0.000179479
2.58406e-05
0.000281415
-0.000668723
-0.00928276
0.0266713
-0.0226535
-0.00678855
-0.000535092
-0.00227212
-0.000535095
-0.00678859
-0.0226535
0.0266707
0.632631
0.194085
0.00207264
-0.0060857
-0.00817056
-0.00608578
0.00207268
0.194084
0.63263
0.901611
0.430193
0.0461082
-0.00905616
-0.00208144
-0.00905628
0.0461084
0.430192
0.90161
0.924902
0.492761
0.0750008
-0.00602127
0.00684152
-0.0060214
0.0750012
0.492761
0.924901
0.824647
0.450002
0.0804988
-0.00129649
0.0118961
-0.00129661
0.0804992
0.450001
0.824645
0.677247
0.37123
0.0729709
0.00227361
0.0131566
0.00227351
0.0729712
0.37123
0.677246
0.532122
0.292039
0.0612554
0.00426894
0.0124362
0.00426886
0.0612556
0.292039
0.532121
0.407573
0.224128
0.0494666
0.00508542
0.0109098
0.00508535
0.0494667
0.224128
0.407573
0.306824
0.169313
0.039058
0.00513689
0.00915304
0.00513686
0.039058
0.169313
0.306824
0.228008
0.126344
0.0303243
0.0047597
0.00743818
0.00475972
0.0303243
0.126344
0.228007
0.16773
0.0932151
0.0231491
0.00415328
0.00586265
0.00415336
0.0231491
0.0932151
0.16773
0.122428
0.0679009
0.0172874
0.00343416
0.00444339
0.0034343
0.0172874
0.0679009
0.122427
0.0888771
0.0485781
0.01244
0.00265574
0.00315549
0.00265594
0.01244
0.0485782
0.0888771
0.0643293
0.0336528
0.00825335
0.00181989
0.00195399
0.00182013
0.00825341
0.0336528
0.0643293
0.0464314
0.0217846
0.0042683
0.000887223
0.000808917
0.000887482
0.00426844
0.0217847
0.0464314
0.0329094
0.0109317
-0.000162154
-0.000118766
-0.000178225
-0.000118556
-0.000161923
0.0109318
0.0329095
0.0245502
0.00785225
0.00785238
0.0245502
0.0178168
0.00995016
0.00564233
0.00392957
0.00550693
0.0039296
0.00564271
0.00995024
0.0178168
0.0088224
0.00748349
0.0053904
0.0041303
0.00595324
0.00413036
0.00539074
0.00748347
0.0088224
0.00458013
0.00382292
0.00555867
0.00382304
0.00458067
0.00400549
0.00346334
0.00500468
0.00346346
0.00400604
0.00355309
0.0031206
0.00447677
0.00312068
0.00355363
0.00316987
0.00280785
0.00399832
0.00280787
0.00317038
0.00283295
0.0025248
0.00356949
0.00252477
0.00283343
0.00253275
0.00226916
0.00318572
0.00226908
0.00253319
0.00226411
0.00203846
0.00284245
0.00203835
0.00226452
0.00202347
0.00183042
0.0025355
0.00183028
0.00202384
0.00180785
0.00164289
0.00226109
0.00164273
0.00180819
0.00161393
0.0014732
0.0020149
0.00147303
0.00161423
0.00144344
0.00132328
0.00179892
0.00132309
0.00144371
0.00120178
0.00110584
0.00149956
0.00110564
0.00120201
-8.92792e-22
-7.64133e-22
-5.17816e-22
-2.7377e-22
-1.80682e-22
-2.73804e-22
-5.17822e-22
-7.64122e-22
-8.92776e-22
-2.94646e-20
-2.05198e-20
-1.09407e-20
-4.40375e-21
-2.43519e-21
-4.404e-21
-1.09409e-20
-2.05196e-20
-2.94641e-20
-1.11469e-18
-6.44711e-19
-2.76988e-19
-8.81791e-20
-4.32869e-20
-8.81835e-20
-2.76993e-19
-6.44708e-19
-1.11468e-18
-4.33994e-17
-2.19682e-17
-7.91421e-18
-2.08817e-18
-9.55923e-19
-2.0883e-18
-7.91442e-18
-2.19682e-17
-4.33988e-17
-1.67263e-15
-7.75365e-16
-2.45421e-16
-5.63215e-17
-2.47295e-17
-5.63254e-17
-2.45429e-16
-7.75364e-16
-1.67261e-15
-6.26141e-14
-2.74124e-14
-7.9424e-15
-1.64687e-15
-6.99249e-16
-1.647e-15
-7.94265e-15
-2.74124e-14
-6.26134e-14
-2.24497e-12
-9.46832e-13
-2.59046e-13
-4.98189e-14
-2.04126e-14
-4.98228e-14
-2.59054e-13
-9.46832e-13
-2.24495e-12
-7.59397e-11
-3.1272e-11
-8.2632e-12
-1.49976e-12
-5.89846e-13
-1.49988e-12
-8.26345e-12
-3.1272e-11
-7.5939e-11
-2.37261e-09
-9.64567e-10
-2.5059e-10
-4.34725e-11
-1.63199e-11
-4.34757e-11
-2.50597e-10
-9.64567e-10
-2.37259e-09
-6.61282e-08
-2.68769e-08
-6.99141e-09
-1.17371e-09
-4.187e-10
-1.17379e-09
-6.99157e-09
-2.68769e-08
-6.61278e-08
-1.54092e-06
-6.38935e-07
-1.70907e-07
-2.82722e-08
-9.57172e-09
-2.8274e-08
-1.7091e-07
-6.38935e-07
-1.54091e-06
-2.58994e-05
-1.14581e-05
-3.33604e-06
-5.65067e-07
-1.8315e-07
-5.65097e-07
-3.33609e-06
-1.14581e-05
-2.58993e-05
-0.00017953
-0.000102842
-4.07169e-05
-7.98005e-06
-2.59476e-06
-7.98037e-06
-4.07173e-05
-0.000102842
-0.000179529
0.00207825
0.000798269
-2.71734e-05
-4.46018e-05
-1.96068e-05
-4.46026e-05
-2.71711e-05
0.000798271
0.00207825
-0.0326043
-0.00975922
0.000113106
0.000179479
6.07616e-07
0.000179485
0.000113094
-0.00975922
-0.0326042
0.336847
0.0268871
-0.0200328
-0.00227211
-7.38759e-05
-0.00227217
-0.0200328
0.0268871
0.336846
0.99061
0.549533
0.0678835
-0.00817056
-0.00292572
-0.00817065
0.0678838
0.549532
0.990609
1.02561
0.810513
0.205811
-0.00208147
-0.00633236
-0.00208139
0.205812
0.810512
1.02561
1.02044
0.815952
0.24823
0.00684143
-0.00661629
0.00684168
0.248231
0.815951
1.02044
0.93909
0.716934
0.229049
0.0118959
-0.00485736
0.0118962
0.22905
0.716934
0.93909
0.79733
0.58486
0.188761
0.0131564
-0.00279751
0.0131566
0.188762
0.58486
0.79733
0.641297
0.458014
0.147712
0.012436
-0.00116401
0.0124362
0.147713
0.458014
0.641297
0.498657
0.349561
0.112522
0.0109095
-6.38042e-05
0.0109096
0.112523
0.349561
0.498657
0.379052
0.262204
0.0843268
0.00915285
0.000573933
0.00915276
0.0843273
0.262204
0.379052
0.283352
0.193937
0.0623693
0.00743802
0.000888236
0.00743782
0.0623697
0.193938
0.283351
0.209042
0.141543
0.0454351
0.00586251
0.000990756
0.00586224
0.0454353
0.141543
0.209042
0.152615
0.101735
0.0323429
0.00444328
0.000959619
0.00444296
0.032343
0.101736
0.152615
0.110572
0.0715605
0.0220485
0.0031554
0.000844685
0.00315507
0.0220486
0.0715606
0.110572
0.0797865
0.0484976
0.0136352
0.00195393
0.000671875
0.00195361
0.0136352
0.0484977
0.0797866
0.0574916
0.0305336
0.0062986
0.000808876
0.000441722
0.000808607
0.00629865
0.0305337
0.0574917
0.0407791
0.0148187
-0.00059527
-0.00017824
0.000128914
-0.000178408
-0.00059525
0.0148189
0.0407792
0.0310488
0.0104419
0.0104421
0.0310489
0.0241492
0.0139322
0.0095543
0.00550695
0.00330095
0.00550725
0.00955463
0.0139324
0.0241493
0.0140821
0.0123788
0.0100096
0.00595327
0.00359517
0.00595357
0.0100099
0.0123789
0.0140822
0.00895418
0.0055587
0.00346089
0.00555909
0.00895454
0.00791589
0.00500471
0.00318808
0.00500519
0.00791631
0.00701649
0.0044768
0.00289704
0.00447732
0.00701696
0.00623123
0.00399834
0.0026201
0.00399886
0.00623171
0.00553789
0.0035695
0.00236539
0.00357
0.00553836
0.004922
0.00318574
0.00213344
0.00318619
0.00492246
0.00437381
0.00284246
0.00192297
0.00284288
0.00437424
0.00388566
0.00253551
0.00173227
0.00253589
0.00388607
0.00345099
0.0022611
0.00155964
0.00226144
0.00345137
0.00306274
0.00201491
0.00140267
0.00201521
0.00306309
0.00272333
0.00179893
0.00126359
0.0017992
0.00272365
0.00227079
0.00149956
0.00105429
0.00149978
0.00227106
-2.40228e-22
-2.48713e-22
-2.0801e-22
-1.90891e-22
-2.73805e-22
-1.90942e-22
-2.08028e-22
-2.48716e-22
-2.40227e-22
-9.40326e-21
-7.52825e-21
-4.69638e-21
-3.29928e-21
-4.40402e-21
-3.29964e-21
-4.69655e-21
-7.52831e-21
-9.40324e-21
-4.22154e-19
-2.58227e-19
-1.22447e-19
-6.77978e-20
-8.81841e-20
-6.7801e-20
-1.2245e-19
-2.58229e-19
-4.22153e-19
-1.81097e-17
-9.20617e-18
-3.49011e-18
-1.5912e-18
-2.08832e-18
-1.59125e-18
-3.49021e-18
-9.20625e-18
-1.81097e-17
-7.22019e-16
-3.27771e-16
-1.05586e-16
-4.17115e-17
-5.63259e-17
-4.17126e-17
-1.0559e-16
-3.27774e-16
-7.22018e-16
-2.71268e-14
-1.14591e-14
-3.29891e-15
-1.17588e-15
-1.64701e-15
-1.17591e-15
-3.29903e-15
-1.14592e-14
-2.71267e-14
-9.63103e-13
-3.87466e-13
-1.03375e-13
-3.41678e-14
-4.98232e-14
-3.41687e-14
-1.03379e-13
-3.8747e-13
-9.63102e-13
-3.21089e-11
-1.24726e-11
-3.16088e-12
-9.85417e-13
-1.49988e-12
-9.85446e-13
-3.161e-12
-1.24728e-11
-3.21089e-11
-9.89768e-10
-3.74779e-10
-9.1834e-11
-2.72992e-11
-4.34759e-11
-2.72999e-11
-9.18372e-11
-3.74783e-10
-9.89769e-10
-2.74104e-08
-1.02127e-08
-2.45938e-09
-7.03228e-10
-1.17379e-09
-7.03247e-10
-2.45946e-09
-1.02128e-08
-2.74104e-08
-6.4598e-07
-2.40251e-07
-5.81403e-08
-1.61761e-08
-2.8274e-08
-1.61765e-08
-5.8142e-08
-2.40253e-07
-6.45981e-07
-1.15063e-05
-4.41161e-06
-1.12307e-06
-3.11594e-07
-5.65096e-07
-3.11601e-07
-1.1231e-06
-4.41163e-06
-1.15064e-05
-0.000105755
-4.74736e-05
-1.48072e-05
-4.41639e-06
-7.98036e-06
-4.41648e-06
-1.48074e-05
-4.74737e-05
-0.000105755
0.000618384
7.83413e-05
-6.27605e-05
-3.18789e-05
-4.46025e-05
-3.18794e-05
-6.27602e-05
7.8344e-05
0.000618386
-0.00928265
-0.000668666
0.000281414
2.58406e-05
0.000179484
2.58413e-05
0.000281416
-0.000668683
-0.00928266
0.0266703
-0.0226536
-0.00678848
-0.000535093
-0.00227216
-0.000535097
-0.00678854
-0.0226536
0.0266702
0.632629
0.194083
0.00207245
-0.00608576
-0.00817064
-0.00608581
0.00207256
0.194084
0.632629
0.90161
0.430191
0.0461077
-0.00905624
-0.00208143
-0.00905632
0.0461081
0.430192
0.90161
0.924901
0.492759
0.0750001
-0.00602136
0.00684158
-0.00602145
0.0750008
0.49276
0.9249
0.824646
0.45
0.0804982
-0.00129659
0.0118961
-0.0012967
0.080499
0.450001
0.824645
0.677246
0.371229
0.0729705
0.00227351
0.0131565
0.00227338
0.0729713
0.37123
0.677246
0.532121
0.292039
0.0612553
0.00426884
0.012436
0.00426871
0.0612559
0.292039
0.532121
0.407573
0.224128
0.0494668
0.00508535
0.0109094
0.00508521
0.0494672
0.224129
0.407573
0.306825
0.169313
0.0390584
0.00513685
0.00915259
0.0051367
0.0390586
0.169314
0.306825
0.228008
0.126345
0.0303249
0.00475971
0.00743768
0.00475954
0.0303248
0.126345
0.228009
0.167731
0.0932159
0.0231499
0.00415335
0.00586212
0.00415315
0.0231496
0.0932161
0.167731
0.122428
0.0679017
0.0172883
0.00343428
0.00444287
0.00343407
0.0172879
0.0679018
0.122429
0.088878
0.048579
0.0124409
0.00265593
0.00315499
0.0026557
0.0124403
0.048579
0.088878
0.0643301
0.0336535
0.00825421
0.00182011
0.00195355
0.00181987
0.00825363
0.0336535
0.0643302
0.0464321
0.0217852
0.00426907
0.000887459
0.000808573
0.000887223
0.00426851
0.0217852
0.0464322
0.03291
0.0109322
-0.000161617
-0.000118575
-0.000178419
-0.000118762
-0.000162037
0.010932
0.0329101
0.0245506
0.00785256
0.00785253
0.0245507
0.017817
0.00995034
0.00564249
0.00392969
0.00550725
0.00392964
0.00564255
0.00995049
0.0178172
0.00882243
0.00748352
0.0053905
0.00413045
0.00595358
0.0041304
0.00539062
0.00748373
0.00882267
0.00458019
0.00382313
0.0055591
0.00382312
0.0045804
0.00400548
0.00346354
0.0050052
0.00346367
0.00400577
0.00355299
0.00312075
0.00447733
0.003121
0.00355337
0.00316968
0.00280793
0.00399887
0.00280826
0.00317013
0.0028327
0.00252483
0.00357
0.0025252
0.0028332
0.00253244
0.00226913
0.0031862
0.00226953
0.00253297
0.00226377
0.0020384
0.00284289
0.00203881
0.00226432
0.0020231
0.00183032
0.0025359
0.00183073
0.00202365
0.00180747
0.00164276
0.00226145
0.00164317
0.00180801
0.00161354
0.00147306
0.00201522
0.00147345
0.00161406
0.00144305
0.00132312
0.0017992
0.0013235
0.00144355
0.00120141
0.00110566
0.00149978
0.00110601
0.00120188
-6.19163e-23
-6.16184e-23
-8.21372e-23
-2.08004e-22
-5.1782e-22
-2.08029e-22
-8.21465e-23
-6.16201e-23
-6.19161e-23
-2.13471e-21
-1.82833e-21
-1.98548e-21
-4.69642e-21
-1.09409e-20
-4.69657e-21
-1.98554e-21
-1.82834e-21
-2.13472e-21
-8.65533e-20
-6.25086e-20
-5.42696e-20
-1.22451e-19
-2.76993e-19
-1.22451e-19
-5.42701e-20
-6.2509e-20
-8.65535e-20
-4.48413e-18
-2.40222e-18
-1.60927e-18
-3.49029e-18
-7.91443e-18
-3.49023e-18
-1.60926e-18
-2.40224e-18
-4.48415e-18
-1.94583e-16
-8.78828e-17
-4.84625e-17
-1.05593e-16
-2.45429e-16
-1.0559e-16
-4.84623e-17
-8.78837e-17
-1.94583e-16
-7.5791e-15
-3.07534e-15
-1.47244e-15
-3.29913e-15
-7.94266e-15
-3.29905e-15
-1.47243e-15
-3.07538e-15
-7.57914e-15
-2.73285e-13
-1.0285e-13
-4.43739e-14
-1.03382e-13
-2.59054e-13
-1.03379e-13
-4.43738e-14
-1.02852e-13
-2.73286e-13
-9.19892e-12
-3.26296e-12
-1.29716e-12
-3.16109e-12
-8.26345e-12
-3.16101e-12
-1.29716e-12
-3.263e-12
-9.19896e-12
-2.87349e-10
-9.68595e-11
-3.58916e-11
-9.18397e-11
-2.50597e-10
-9.18374e-11
-3.58916e-11
-9.68608e-11
-2.87351e-10
-8.17017e-09
-2.63066e-09
-9.133e-10
-2.45952e-09
-6.99157e-09
-2.45946e-09
-9.13299e-10
-2.63069e-09
-8.17022e-09
-2.03365e-07
-6.2935e-08
-2.0537e-08
-5.81434e-08
-1.7091e-07
-5.8142e-08
-2.0537e-08
-6.29358e-08
-2.03366e-07
-4.08734e-06
-1.2339e-06
-3.81925e-07
-1.12312e-06
-3.33609e-06
-1.1231e-06
-3.81924e-07
-1.23391e-06
-4.08736e-06
-5.4066e-05
-1.66497e-05
-5.12567e-06
-1.48076e-05
-4.07173e-05
-1.48074e-05
-5.12565e-06
-1.66499e-05
-5.40661e-05
-0.000162274
-7.57556e-05
-3.30421e-05
-6.27597e-05
-2.71714e-05
-6.27603e-05
-3.30421e-05
-7.57553e-05
-0.000162273
0.000923601
0.000508707
5.20099e-05
0.000281415
0.000113098
0.000281416
5.20097e-05
0.000508709
0.000923596
-0.028524
-0.00814407
-0.00108797
-0.00678858
-0.0200328
-0.00678852
-0.00108796
-0.0081441
-0.028524
0.0978601
0.00631322
-0.00375953
0.00207266
0.0678837
0.00207251
-0.00375952
0.00631331
0.0978602
0.283416
0.0604886
-0.000870302
0.0461084
0.205811
0.0461079
-0.000870313
0.0604889
0.283416
0.349894
0.0955286
0.00586688
0.0750012
0.24823
0.0750004
0.00586685
0.0955291
0.349894
0.33004
0.101516
0.0114852
0.0804992
0.22905
0.0804984
0.0114851
0.101517
0.33004
0.275674
0.0915404
0.0144243
0.0729712
0.188761
0.0729706
0.0144243
0.0915409
0.275674
0.217613
0.0766879
0.0151585
0.0612557
0.147712
0.0612552
0.0151585
0.0766883
0.217614
0.167089
0.0619626
0.0145241
0.0494668
0.112523
0.0494665
0.0145241
0.0619629
0.167089
0.126266
0.0490362
0.0131501
0.0390581
0.0843269
0.0390579
0.0131502
0.0490362
0.126267
0.0944604
0.0382672
0.0114469
0.0303244
0.0623693
0.0303243
0.0114469
0.0382671
0.0944604
0.0702309
0.0295545
0.00967417
0.0231492
0.0454351
0.0231492
0.00967415
0.0295542
0.0702309
0.0520791
0.0226419
0.00798179
0.0172875
0.0323428
0.0172875
0.00798171
0.0226415
0.0520791
0.038656
0.0172206
0.00643276
0.0124401
0.0220484
0.01244
0.00643262
0.01722
0.0386559
0.0287864
0.0129508
0.00499335
0.00825347
0.0136351
0.00825342
0.00499314
0.0129501
0.0287863
0.021409
0.00944322
0.00340859
0.00426846
0.00629855
0.00426837
0.00340828
0.00944252
0.021409
0.015501
0.00551118
0.000516522
-0.000161947
-0.000595291
-0.000162074
0.000516152
0.00551049
0.0155009
0.0110345
0.00415199
0.00415109
0.0110345
0.00678212
0.00379585
0.00238697
0.00564281
0.00955462
0.00564246
0.00238634
0.00379518
0.00678206
0.00221469
0.00157741
0.00147986
0.00539085
0.0100099
0.00539054
0.00147935
0.00157709
0.00221461
0.00108452
0.00458077
0.00895456
0.00458033
0.00108385
0.000962505
0.00400614
0.00791633
0.00400571
0.000961807
0.000868801
0.00355372
0.00701697
0.00355331
0.000868124
0.000789879
0.00317046
0.00623173
0.00317009
0.000789244
0.000718834
0.0028335
0.00553837
0.00283316
0.000718242
0.000654105
0.00253325
0.00492247
0.00253293
0.000653557
0.000594934
0.00226457
0.00437425
0.00226428
0.000594429
0.000540813
0.00202389
0.00388608
0.00202362
0.000540349
0.000491315
0.00180823
0.00345137
0.00180799
0.00049089
0.000445616
0.00161426
0.0030631
0.00161404
0.000445228
0.000404967
0.00144374
0.00272366
0.00144353
0.000404612
0.000325587
0.00120204
0.00227106
0.00120186
0.000325279
-1.52068e-23
-1.95775e-23
-6.16176e-23
-2.4871e-22
-7.64119e-22
-2.48717e-22
-6.16202e-23
-1.95781e-23
-1.52065e-23
-3.97391e-22
-5.26655e-22
-1.82836e-21
-7.5284e-21
-2.05196e-20
-7.52833e-21
-1.82835e-21
-5.26653e-22
-3.97389e-22
-1.58832e-20
-1.9332e-20
-6.25106e-20
-2.58235e-19
-6.44706e-19
-2.5823e-19
-6.25091e-20
-1.93317e-20
-1.58832e-20
-8.7608e-19
-8.04608e-19
-2.40232e-18
-9.20649e-18
-2.19681e-17
-9.20628e-18
-2.40225e-18
-8.04596e-19
-8.76083e-19
-3.93824e-17
-3.03061e-17
-8.78869e-17
-3.27783e-16
-7.75362e-16
-3.27775e-16
-8.78839e-17
-3.03056e-17
-3.93826e-17
-1.54746e-15
-1.05889e-15
-3.07549e-15
-1.14595e-14
-2.74124e-14
-1.14592e-14
-3.07538e-15
-1.05887e-15
-1.54747e-15
-5.54854e-14
-3.48187e-14
-1.02856e-13
-3.8748e-13
-9.4683e-13
-3.87471e-13
-1.02852e-13
-3.48182e-14
-5.54858e-14
-1.84776e-12
-1.07839e-12
-3.26313e-12
-1.24731e-11
-3.1272e-11
-1.24728e-11
-3.26301e-12
-1.07837e-12
-1.84777e-12
-5.71818e-11
-3.11736e-11
-9.68643e-11
-3.74791e-10
-9.64566e-10
-3.74783e-10
-9.68608e-11
-3.11731e-11
-5.71822e-11
-1.62294e-09
-8.25632e-10
-2.63079e-09
-1.0213e-08
-2.68769e-08
-1.02128e-08
-2.63069e-09
-8.2562e-10
-1.62296e-09
-4.10178e-08
-1.94037e-08
-6.29379e-08
-2.40258e-07
-6.38935e-07
-2.40254e-07
-6.29357e-08
-1.94034e-08
-4.10182e-08
-8.69174e-07
-3.81964e-07
-1.23394e-06
-4.4117e-06
-1.14581e-05
-4.41163e-06
-1.23391e-06
-3.81959e-07
-8.69181e-07
-1.34217e-05
-5.52679e-06
-1.66502e-05
-4.7474e-05
-0.000102842
-4.74737e-05
-1.66499e-05
-5.52672e-06
-1.34217e-05
-9.69243e-05
-4.02925e-05
-7.57552e-05
7.83485e-05
0.000798271
7.83433e-05
-7.57554e-05
-4.02922e-05
-9.69245e-05
0.000326852
8.3544e-05
0.00050871
-0.000668716
-0.0097592
-0.000668674
0.000508709
8.35432e-05
0.000326853
-0.00412253
-0.000859664
-0.00814417
-0.0226536
0.026887
-0.0226536
-0.00814408
-0.000859655
-0.00412255
-0.012276
-0.00637382
0.00631344
0.194084
0.549532
0.194083
0.00631325
-0.00637378
-0.012276
0.00154231