/*--------------------------------*- C++ -*----------------------------------*\
  =========                 |
  \\      /  F ield         | OpenFOAM: The Open Source CFD Toolbox
   \\    /   O peration     | Website:  https://openfoam.org
    \\  /    A nd           | Version:  6
     \\/     M anipulation  |
\*---------------------------------------------------------------------------*/
FoamFile
{
    version     2.0;
    format      ascii;
    class       volScalarField;
    location    "0.1";
    object      T;
}
// * * * * * * * * * * * * * * * * * * * * * * * * * * * * * * * * * * * * * //

dimensions      [0 0 0 1 0 0 0];

internalField   nonuniform List<scalar> 
3029
(
308.578
308.995
303.26
402.487
608.205
402.486
303.26
308.995
308.578
305.548
304.765
297.322
404.572
617.011
404.571
297.322
304.765
305.548
327.081
336.207
343.138
469.373
657.742
469.371
343.138
336.206
327.081
395.346
416.235
446.08
566.188
709.082
566.186
446.079
416.234
395.346
500.063
524.383
564.403
659.17
755.75
659.168
564.401
524.381
500.063
606.298
626.637
663.423
730.314
791.302
730.312
663.421
626.634
606.297
692.933
707.085
735.116
779.103
815.973
779.101
735.113
707.081
692.932
755.144
763.871
783.164
810.686
832.253
810.683
783.16
763.866
755.142
796.397
801.299
813.771
830.362
842.634
830.359
813.767
801.293
796.395
822.341
824.853
832.57
842.271
849.075
842.268
832.566
824.847
822.338
838.03
839.174
843.79
849.308
852.98
849.305
843.786
839.168
838.028
847.211
847.635
850.322
853.38
855.303
853.378
850.318
847.629
847.208
852.418
852.505
854.053
855.725
856.715
855.723
854.049
852.499
852.415
855.282
855.26
856.153
856.67
856.447
856.668
856.15
855.254
855.279
856.786
856.531
856.753
861.899
872.774
861.897
856.749
856.526
856.783
857.526
859.326
870.798
845.8
703.795
845.799
870.795
859.321
857.522
859.706
863.435
813.16
568.315
404.3
568.316
813.158
863.43
859.702
862.191
857.292
728.281
445.139
388.279
445.139
728.28
857.288
862.187
862.72
849.45
697.869
434.471
390.65
434.471
697.869
849.446
862.716
861.809
845.402
706.97
480.387
427.915
480.387
706.97
845.399
861.806
860.597
844.931
731.871
547.9
492.854
547.9
731.87
844.928
860.594
859.598
846.221
758.461
614.372
564.331
614.372
758.46
846.218
859.595
858.895
848.045
781.598
671.419
629.673
671.419
781.597
848.042
858.892
858.438
849.867
800.291
717.565
684.462
717.565
800.29
849.865
858.436
858.165
851.488
814.854
753.665
728.3
753.665
814.853
851.487
858.163
858.017
852.849
825.947
781.273
762.339
781.273
825.946
852.848
858.015
857.951
853.949
834.257
802.022
788.187
802.022
834.256
853.949
857.949
857.931
854.811
840.401
817.388
807.445
817.388
840.4
854.811
857.929
857.93
855.472
844.918
828.63
821.546
828.63
844.918
855.472
857.928
857.927
855.982
848.293
836.827
831.757
836.827
848.293
855.983
857.925
857.935
856.451
850.996
843.018
839.412
843.019
850.997
856.452
857.933
857.992
856.981
853.039
846.846
843.867
846.846
853.041
856.983
857.99
858.078
857.568
854.984
849.929
847.027
849.929
854.987
857.57
858.075
858.165
858.095
857.074
854.047
851.638
854.049
857.077
858.097
858.163
308.995
362.655
411.885
533.191
684.928
533.19
411.884
362.655
308.995
304.765
362.281
416.939
545.593
695.281
545.591
416.938
362.28
304.765
336.206
404.612
474.876
598.468
724.668
598.466
474.874
404.611
336.206
416.235
480.918
557.166
665.282
759.453
665.28
557.163
480.916
416.234
524.383
575.395
642.801
725.997
790.09
725.994
642.798
575.391
524.381
626.637
662.413
713.988
772.219
813.263
772.216
713.983
662.408
626.633
707.085
730.205
766.062
804.256
829.458
804.253
766.058
730.199
707.08
763.87
777.761
801.217
825.237
840.254
825.235
801.212
777.754
763.865
801.299
809.129
823.833
838.486
847.223
838.483
823.828
809.122
801.292
824.852
828.994
837.912
846.632
851.61
846.63
837.907
828.987
824.846
839.174
841.201
846.461
851.537
854.314
851.534
846.456
841.194
839.167
847.635
848.519
851.542
854.436
855.952
854.433
851.537
848.512
847.628
852.505
852.808
854.509
856.135
856.961
856.133
854.504
852.801
852.498
855.259
855.274
856.222
857.034
857.11
857.032
856.218
855.267
855.253
856.531
856.577
856.892
857.911
862.267
857.909
856.887
856.571
856.525
859.326
857.737
861.358
868.275
845.672
868.273
861.353
857.731
859.32
863.435
860.64
854.995
769.138
606.326
769.137
854.991
860.634
863.429
857.292
861.316
830.311
661.051
486.817
661.051
830.308
861.31
857.286
849.45
858.995
814.321
632.409
484.334
632.409
814.319
858.99
849.445
845.402
856.305
811.603
651.996
529.691
651.996
811.601
856.3
845.398
844.931
854.573
816.183
688.075
590.192
688.075
816.181
854.569
844.927
846.221
853.814
822.99
724.346
648.296
724.346
822.988
853.811
846.217
848.045
853.703
829.735
755.45
697.976
755.449
829.733
853.7
848.042
849.867
853.962
835.654
780.555
737.991
780.554
835.652
853.96
849.864
851.488
854.404
840.584
800.234
769.261
800.233
840.583
854.402
851.487
852.85
854.907
844.571
815.405
793.26
815.405
844.57
854.906
852.848
853.95
855.4
847.735
826.998
811.494
826.998
847.734
855.399
853.949
854.811
855.835
850.214
835.846
825.315
835.846
850.214
855.835
854.811
855.472
856.186
852.167
842.68
835.878
842.68
852.167
856.186
855.473
855.982
856.437
853.77
848.114
844.104
848.114
853.77
856.438
855.984
856.451
856.705
855.568
853.083
851.302
853.084
855.569
856.707
856.453
856.981
857.01
856.188
854.492
853.305
854.493
856.19
857.013
856.983
857.568
857.512
856.35
853.531
851.706
853.532
856.352
857.515
857.57
858.095
858.117
857.365
854.66
852.418
854.662
857.368
858.12
858.098
303.26
411.885
565.706
695.218
779.965
695.216
565.704
411.884
303.26
297.322
416.939
580.936
708.414
786.624
708.411
580.934
416.938
297.322
343.138
474.875
626.663
737.298
800.452
737.296
626.66
474.873
343.137
446.08
557.165
681.633
769.369
815.722
769.367
681.629
557.162
446.078
564.402
642.801
734.038
797.427
828.882
797.424
734.034
642.796
564.4
663.423
713.987
776.058
818.642
838.811
818.639
776.054
713.982
663.419
735.115
766.061
806.113
833.328
845.757
833.326
806.109
766.056
735.111
783.163
801.216
826.122
842.945
850.391
842.943
826.118
801.21
783.158
813.77
823.832
838.875
849.022
853.387
849.02
838.871
823.826
813.764
832.569
837.911
846.769
852.766
855.276
852.763
846.765
837.905
832.563
843.789
846.46
851.55
855.026
856.444
855.024
851.545
846.454
843.783
850.321
851.541
854.39
856.367
857.152
856.364
854.386
851.535
850.315
854.052
854.508
856.048
857.153
857.589
857.151
856.044
854.502
854.046
856.152
856.221
857.007
857.618
857.826
857.616
857.003
856.216
856.147
856.752
856.891
857.494
857.707
857.897
857.705
857.49
856.885
856.747
870.797
861.357
858.298
861.076
867.194
861.074
858.295
861.352
870.792
813.159
854.994
859.669
857.084
826.953
857.083
859.665
854.989
813.155
728.281
830.311
858.423
836.953
763.8
836.951
858.42
830.307
728.278
697.869
814.321
855.38
823.738
744.384
823.737
855.377
814.317
697.867
706.97
811.603
852.828
821.229
753.176
821.228
852.825
811.599
706.968
731.871
816.183
851.494
824.681
771.634
824.68
851.491
816.18
731.869
758.461
822.99
851.163
830.048
790.438
830.048
851.16
822.987
758.459
781.598
829.735
851.455
835.448
806.558
835.447
851.453
829.733
781.597
800.291
835.655
852.085
840.214
819.473
840.214
852.083
835.653
800.29
814.855
840.585
852.864
844.214
829.53
844.213
852.862
840.583
814.853
825.948
844.573
853.674
847.498
837.286
847.497
853.672
844.571
825.947
834.258
847.736
854.447
850.181
843.282
850.181
854.446
847.735
834.257
840.402
850.216
855.154
852.399
847.996
852.399
855.153
850.215
840.402
844.919
852.168
855.811
854.315
851.848
854.315
855.811
852.169
844.919
848.295
853.772
856.534
856.138
855.207
856.138
856.534
853.772
848.296
850.998
855.569
857.855
858.166
858.364
858.166
857.857
855.571
850.999
853.041
856.19
856.193
853.043
854.986
856.351
856.995
855.504
853.712
855.506
856.998
856.355
854.988
857.075
857.366
857.41
855.619
853.504
855.621
857.413
857.369
857.079
857.592
855.991
853.988
855.993
857.594
857.648
856.256
854.465
856.257
857.651
857.693
856.464
854.878
856.465
857.695
857.729
856.641
855.239
856.642
857.731
857.763
856.796
855.557
856.797
857.764
857.793
856.934
855.84
856.935
857.794
857.821
857.057
856.091
857.058
857.822
857.846
857.167
856.315
857.168
857.847
857.869
857.267
856.515
857.268
857.87
857.89
857.356
856.693
857.357
857.891
857.909
857.434
856.848
857.435
857.91
857.946
857.545
857.056
857.546
857.947
402.487
533.191
695.218
799.607
838.378
799.604
695.215
533.189
402.487
404.572
545.593
708.413
805.847
840.153
805.845
708.409
545.59
404.572
469.373
598.467
737.297
816.476
843.466
816.473
737.293
598.464
469.371
566.188
665.281
769.368
827.654
847.119
827.652
769.364
665.277
566.185
659.169
725.995
797.425
837.272
850.37
837.27
797.421
725.991
659.166
730.313
772.217
818.64
844.513
852.902
844.511
818.637
772.212
730.309
779.101
804.253
833.327
849.533
854.721
849.531
833.323
804.248
779.097
810.684
825.235
842.944
852.837
855.963
852.835
842.94
825.23
810.679
830.36
838.483
849.021
854.937
856.783
854.936
849.017
838.478
830.355
842.268
846.63
852.764
856.24
857.309
856.238
852.761
846.625
842.263
849.306
851.535
855.025
857.031
857.638
857.029
855.022
851.53
849.301
853.378
854.433
856.366
857.502
857.84
857.5
856.362
854.428
853.373
855.723
856.133
857.152
857.778
857.964
857.777
857.148
856.128
855.719
856.669
857.032
857.617
857.947
858.051
857.946
857.614
857.028
856.664
861.898
857.909
857.706
858.007
857.987
858.006
857.703
857.905
861.893
845.799
868.274
861.076
858.309
859.129
858.308
861.073
868.27
845.796
568.315
769.137
857.084
860.872
861.837
860.871
857.081
769.134
568.314
445.139
661.051
836.952
862.243
859.052
862.242
836.949
661.049
445.139
434.471
632.409
823.738
860.859
854.967
860.858
823.736
632.407
434.471
480.387
651.996
821.229
858.698
852.653
858.697
821.226
651.994
480.387
547.9
688.076
824.681
857.065
852.077
857.063
824.679
688.074
547.9
614.372
724.347
830.049
856.15
852.407
856.149
830.047
724.345
614.371
671.42
755.451
835.449
855.776
853.105
855.775
835.447
755.449
671.419
717.566
780.556
840.215
855.751
853.909
855.75
840.214
780.555
717.565
753.666
800.236
844.215
855.923
854.694
855.922
844.213
800.234
753.665
781.275
815.408
847.499
856.199
855.414
856.198
847.498
815.407
781.274
802.024
827.001
850.183
856.527
856.063
856.526
850.182
827
802.024
817.39
835.849
852.401
856.881
856.651
856.881
852.4
835.849
817.39
828.633
842.683
854.317
857.262
857.2
857.262
854.317
842.683
828.633
836.829
848.117
856.139
857.687
857.722
857.687
856.14
848.118
836.83
843.021
853.086
858.166
858.146
858.174
858.147
858.168
853.087
843.022
846.849
854.495
854.497
846.85
849.931
853.533
855.506
856.29
855.57
856.294
855.509
853.536
849.933
854.049
854.663
855.621
856.199
855.366
856.202
855.624
854.665
854.052
855.993
856.341
855.548
856.343
855.995
856.257
856.507
855.803
856.509
856.259
856.466
856.666
856.046
856.667
856.467
856.642
856.81
856.266
856.811
856.643
856.797
856.94
856.463
856.941
856.798
856.935
857.057
856.639
857.058
856.935
857.058
857.163
856.796
857.164
857.059
857.169
857.258
856.936
857.259
857.169
857.268
857.344
857.062
857.345
857.268
857.356
857.422
857.175
857.423
857.357
857.435
857.491
857.274
857.491
857.435
857.546
857.59
857.411
857.591
857.546
608.205
684.925
779.963
838.377
855.337
838.375
779.96
684.923
608.204
617.01
695.279
786.621
840.151
855.23
840.149
786.618
695.276
617.009
657.74
724.665
800.449
843.464
855.432
843.463
800.446
724.662
657.738
709.079
759.449
815.719
847.117
855.84
847.116
815.716
759.446
709.077
755.747
790.086
828.879
850.369
856.335
850.367
828.876
790.083
755.745
791.299
813.259
838.808
852.9
856.803
852.899
838.805
813.255
791.296
815.97
829.454
845.754
854.72
857.192
854.718
845.75
829.45
815.967
832.25
840.25
850.388
855.962
857.49
855.96
850.385
840.246
832.247
842.631
847.219
853.384
856.782
857.706
856.78
853.38
847.215
842.627
849.072
851.607
855.274
857.308
857.856
857.306
855.27
851.602
849.069
852.977
854.311
856.442
857.638
857.956
857.636
856.438
854.307
852.973
855.301
855.949
857.151
857.839
858.02
857.838
857.147
855.945
855.297
856.713
856.958
857.588
857.964
858.062
857.962
857.585
856.954
856.709
856.445
857.108
857.825
858.05
858.093
858.049
857.822
857.104
856.441
872.772
862.265
857.896
857.987
858.098
857.986
857.894
862.261
872.768
703.795
845.671
867.193
859.129
858.139
859.128
867.191
845.667
703.793
404.3
606.326
826.953
861.837
859.448
861.836
826.95
606.324
404.3
388.279
486.817
763.8
859.051
861.008
859.05
763.798
486.817
388.279
390.65
484.334
744.384
854.967
861.138
854.966
744.381
484.333
390.65
427.915
529.692
753.176
852.654
860.331
852.652
753.174
529.691
427.915
492.854
590.192
771.634
852.077
859.387
852.076
771.632
590.191
492.854
564.331
648.297
790.439
852.407
858.637
852.406
790.437
648.296
564.33
629.673
697.977
806.559
853.106
858.132
853.105
806.557
697.976
629.672
684.462
737.992
819.474
853.91
857.839
853.909
819.473
737.991
684.462
728.301
769.263
829.532
854.694
857.694
854.694
829.531
769.262
728.301
762.341
793.263
837.288
855.415
857.646
855.414
837.287
793.262
762.34
788.189
811.497
843.284
856.064
857.659
856.064
843.284
811.496
788.188
807.448
825.318
847.998
856.652
857.71
856.652
847.998
825.318
807.447
821.549
835.882
851.851
857.201
857.788
857.201
851.851
835.881
821.549
831.761
844.109
855.209
857.723
857.891
857.724
855.21
844.109
831.761
839.415
851.305
858.365
858.174
858.034
858.175
858.367
851.307
839.416
843.871
853.309
853.311
843.873
847.031
851.71
853.716
855.573
856.589
855.576
853.718
851.712
847.032
851.642
852.422
853.508
855.369
856.454
855.371
853.509
852.423
851.643
853.992
855.551
856.517
855.552
853.993
854.469
855.806
856.642
855.806
854.469
854.882
856.049
856.776
856.049
854.882
855.242
856.268
856.903
856.269
855.242
855.56
856.465
857.02
856.465
855.56
855.843
856.641
857.126
856.641
855.842
856.094
856.798
857.222
856.798
856.094
856.317
856.938
857.309
856.938
856.317
856.517
857.064
857.388
857.064
856.516
856.695
857.176
857.459
857.177
856.694
856.85
857.275
857.522
857.275
856.85
857.057
857.412
857.618
857.412
857.057
402.485
533.188
695.213
799.602
838.374
799.601
695.212
533.187
402.485
404.57
545.589
708.408
805.842
840.148
805.841
708.406
545.588
404.57
469.37
598.463
737.293
816.471
843.462
816.47
737.291
598.462
469.369
566.184
665.276
769.363
827.649
847.115
827.648
769.361
665.274
566.183
659.165
725.99
797.421
837.267
850.367
837.265
797.418
725.988
659.164
730.308
772.212
818.636
844.509
852.898
844.506
818.633
772.209
730.307
779.097
804.249
833.322
849.53
854.717
849.526
833.318
804.246
779.095
810.68
825.23
842.94
852.834
855.96
852.829
842.935
825.228
810.678
830.356
838.479
849.017
854.935
856.78
854.931
849.012
838.476
830.354
842.265
846.626
852.761
856.237
857.306
856.233
852.756
846.623
842.262
849.302
851.531
855.022
857.028
857.636
857.025
855.018
851.528
849.3
853.375
854.43
856.363
857.499
857.838
857.497
856.359
854.427
853.372
855.721
856.13
857.149
857.776
857.962
857.774
857.146
856.127
855.718
856.666
857.03
857.615
857.945
858.049
857.943
857.612
857.027
856.663
861.896
857.907
857.704
858.005
857.986
858.004
857.701
857.904
861.893
845.798
868.272
861.074
858.307
859.128
858.306
861.071
868.269
845.796
568.315
769.136
857.082
860.871
861.836
860.869
857.08
769.134
568.314
445.139
661.051
836.951
862.242
859.05
862.241
836.949
661.049
445.139
434.471
632.409
823.738
860.858
854.966
860.857
823.735
632.408
434.471
480.387
651.996
821.228
858.697
852.653
858.696
821.226
651.995
480.387
547.9
688.076
824.681
857.064
852.076
857.063
824.679
688.074
547.9
614.372
724.347
830.048
856.15
852.406
856.149
830.047
724.345
614.371
671.42
755.451
835.448
855.776
853.105
855.775
835.447
755.449
671.419
717.566
780.556
840.215
855.751
853.909
855.751
840.214
780.555
717.565
753.666
800.236
844.215
855.923
854.694
855.923
844.214
800.235
753.666
781.275
815.408
847.5
856.199
855.415
856.199
847.499
815.407
781.274
802.025
827.001
850.183
856.528
856.064
856.527
850.183
827.001
802.024
817.391
835.85
852.402
856.883
856.653
856.883
852.402
835.85
817.391
828.634
842.685
854.318
857.264
857.202
857.264
854.318
842.685
828.634
836.831
848.119
856.141
857.689
857.725
857.689
856.142
848.12
836.831
843.023
853.088
858.168
858.148
858.176
858.149
858.17
853.089
843.024
846.851
854.497
854.5
846.852
849.934
853.536
855.51
856.298
855.578
856.299
855.512
853.538
849.935
854.053
854.667
855.626
856.206
855.373
856.206
855.626
854.666
854.054
855.998
856.347
855.554
856.347
855.997
856.262
856.513
855.808
856.512
856.261
856.47
856.671
856.051
856.67
856.469
856.646
856.814
856.27
856.814
856.645
856.801
856.944
856.467
856.943
856.799
856.938
857.061
856.642
857.06
856.937
857.061
857.167
856.799
857.166
857.06
857.172
857.262
856.94
857.261
857.17
857.27
857.347
857.065
857.347
857.269
857.359
857.425
857.178
857.424
857.358
857.437
857.493
857.276
857.493
857.436
857.548
857.593
857.413
857.592
857.547
303.26
411.883
565.703
695.213
779.959
695.212
565.702
411.883
303.26
297.322
416.937
580.932
708.407
786.617
708.406
580.931
416.937
297.322
343.137
474.872
626.658
737.291
800.445
737.291
626.657
474.872
343.137
446.078
557.161
681.627
769.362
815.715
769.361
681.626
557.16
446.077
564.399
642.795
734.031
797.419
828.875
797.418
734.03
642.794
564.398
663.418
713.98
776.051
818.635
838.804
818.633
776.049
713.979
663.417
735.11
766.054
806.106
833.321
845.749
833.318
806.105
766.053
735.109
783.157
801.209
826.115
842.938
850.384
842.935
826.114
801.207
783.156
813.764
823.825
838.868
849.016
853.38
849.012
838.867
823.823
813.762
832.563
837.904
846.763
852.76
855.27
852.756
846.761
837.902
832.561
843.784
846.454
851.544
855.021
856.438
855.018
851.542
846.451
843.782
850.315
851.535
854.384
856.362
857.147
856.359
854.382
851.533
850.313
854.047
854.502
856.043
857.148
857.585
857.146
856.041
854.5
854.045
856.148
856.216
857.002
857.614
857.822
857.612
857
856.214
856.146
856.748
856.886
857.49
857.703
857.894
857.701
857.488
856.884
856.746
870.794
861.353
858.294
861.073
867.191
861.071
858.293
861.35
870.792
813.157
854.991
859.665
857.081
826.951
857.08
859.663
854.988
813.155
728.28
830.308
858.42
836.95
763.798
836.949
858.419
830.306
728.279
697.869
814.319
855.377
823.736
744.382
823.736
855.376
814.317
697.867
706.97
811.601
852.826
821.227
753.174
821.227
852.825
811.599
706.968
731.871
816.182
851.492
824.68
771.633
824.679
851.491
816.18
731.869
758.461
822.989
851.161
830.048
790.438
830.047
851.16
822.988
758.459
781.598
829.735
851.455
835.448
806.558
835.448
851.454
829.733
781.597
800.291
835.654
852.085
840.215
819.474
840.215
852.084
835.653
800.29
814.855
840.585
852.864
844.215
829.532
844.214
852.864
840.584
814.854
825.948
844.574
853.675
847.5
837.288
847.5
853.674
844.573
825.948
834.259
847.738
854.449
850.184
843.285
850.184
854.448
847.737
834.258
840.404
850.218
855.157
852.403
847.999
852.403
855.156
850.218
840.403
844.922
852.172
855.814
854.319
851.852
854.319
855.814
852.172
844.922
848.298
853.775
856.538
856.142
855.211
856.143
856.538
853.776
848.298
851.002
855.573
857.86
858.17
858.368
858.17
857.861
855.575
851.002
853.045
856.195
856.198
853.047
854.992
856.357
857.003
855.512
853.72
855.513
857.005
856.359
854.992
857.081
857.373
857.418
855.627
853.511
855.627
857.418
857.373
857.082
857.599
855.999
853.995
855.998
857.599
857.655
856.262
854.471
856.262
857.655
857.699
856.47
854.884
856.47
857.698
857.735
856.646
855.244
856.645
857.734
857.768
856.801
855.562
856.8
857.767
857.798
856.938
855.844
856.938
857.797
857.825
857.061
856.095
857.061
857.824
857.85
857.171
856.318
857.171
857.849
857.873
857.27
856.518
857.27
857.872
857.894
857.359
856.695
857.359
857.893
857.912
857.437
856.851
857.437
857.912
857.949
857.548
857.058
857.547
857.948
308.995
362.654
411.883
533.188
684.923
533.187
411.883
362.654
308.995
304.765
362.28
416.937
545.589
695.276
545.588
416.937
362.28
304.764
336.206
404.61
474.872
598.463
724.662
598.462
474.872
404.61
336.206
416.234
480.915
557.161
665.275
759.445
665.275
557.16
480.914
416.233
524.38
575.389
642.795
725.989
790.082
725.988
642.794
575.388
524.379
626.632
662.406
713.98
772.21
813.254
772.209
713.979
662.405
626.631
707.079
730.197
766.054
804.247
829.449
804.246
766.053
730.195
707.078
763.864
777.752
801.208
825.228
840.245
825.228
801.207
777.75
763.862
801.291
809.12
823.824
838.477
847.214
838.476
823.823
809.118
801.289
824.845
828.985
837.903
846.624
851.602
846.623
837.902
828.983
824.843
839.166
841.192
846.453
851.529
854.306
851.528
846.451
841.19
839.164
847.627
848.51
851.534
854.428
855.944
854.427
851.533
848.508
847.625
852.498
852.8
854.501
856.128
856.954
856.127
854.5
852.798
852.496
855.253
855.266
856.215
857.028
857.104
857.027
856.214
855.264
855.251
856.525
856.57
856.885
857.905
862.262
857.904
856.884
856.568
856.523
859.321
857.731
861.352
868.27
845.668
868.269
861.351
857.729
859.319
863.43
860.634
854.99
769.134
606.324
769.134
854.989
860.633
863.428
857.288
861.311
830.307
661.049
486.817
661.05
830.306
861.309
857.286
849.446
858.991
814.317
632.408
484.333
632.408
814.317
858.989
849.445
845.4
856.301
811.6
651.995
529.691
651.995
811.6
856.3
845.398
844.929
854.571
816.181
688.074
590.191
688.075
816.181
854.569
844.927
846.219
853.813
822.988
724.345
648.296
724.346
822.988
853.811
846.218
848.044
853.702
829.734
755.45
697.976
755.45
829.734
853.701
848.043
849.866
853.962
835.654
780.555
737.992
780.556
835.654
853.961
849.865
851.489
854.405
840.585
800.235
769.263
800.236
840.585
854.404
851.488
852.851
854.91
844.574
815.408
793.263
815.408
844.573
854.909
852.851
853.952
855.403
847.738
827.002
811.498
827.002
847.738
855.403
853.952
854.815
855.84
850.219
835.851
825.319
835.851
850.219
855.84
854.815
855.476
856.191
852.172
842.686
835.883
842.686
852.173
856.192
855.477
855.988
856.444
853.776
848.121
844.111
848.121
853.777
856.444
855.988
856.457
856.712
855.575
853.09
851.308
853.09
855.576
856.714
856.458
856.988
857.018
856.196
854.5
853.313
854.501
856.198
857.02
856.989
857.575
857.52
856.358
853.538
851.714
853.539
856.36
857.521
857.575
858.101
858.124
857.373
854.668
852.425
854.667
857.373
858.125
858.103
308.578
308.995
303.26
402.486
608.204
402.486
303.26
308.995
308.578
305.548
304.765
297.322
404.571
617.008
404.57
297.322
304.764
305.547
327.081
336.206
343.137
469.37
657.738
469.37
343.137
336.206
327.081
395.345
416.234
446.078
566.184
709.076
566.183
446.077
416.233
395.345
500.062
524.38
564.399
659.165
755.744
659.164
564.398
524.379
500.061
606.296
626.632
663.418
730.308
791.295
730.307
663.417
626.631
606.295
692.931
707.079
735.109
779.096
815.967
779.095
735.109
707.078
692.929
755.141
763.863
783.156
810.678
832.246
810.678
783.156
763.862
755.139
796.394
801.291
813.763
830.354
842.627
830.354
813.762
801.29
796.392
822.337
824.844
832.562
842.263
849.069
842.263
832.562
824.843
822.334
838.026
839.166
843.783
849.3
852.973
849.3
843.782
839.164
838.024
847.207
847.627
850.314
853.373
855.297
853.372
850.313
847.625
847.205
852.414
852.497
854.046
855.718
856.709
855.718
854.045
852.496
852.412
855.278
855.252
856.147
856.664
856.441
856.664
856.146
855.251
855.276
856.782
856.525
856.747
861.894
872.769
861.893
856.746
856.523
856.78
857.522
859.32
870.792
845.796
703.793
845.796
870.792
859.319
857.52
859.702
863.43
813.156
568.314
404.3
568.315
813.155
863.429
859.701
862.188
857.287
728.279
445.139
388.279
445.139
728.279
857.286
862.186
862.717
849.446
697.867
434.471
390.65
434.471
697.868
849.445
862.715
861.806
845.399
706.968
480.387
427.915
480.387
706.969
845.398
861.805
860.595
844.928
731.869
547.9
492.854
547.9
731.87
844.928
860.594
859.597
846.219
758.459
614.372
564.331
614.372
758.46
846.218
859.596
858.893
848.043
781.597
671.419
629.673
671.419
781.597
848.043
858.892
858.438
849.866
800.291
717.565
684.462
717.566
800.291
849.866
858.437
858.165
851.489
814.855
753.666
728.301
753.666
814.855
851.488
858.164
858.017
852.851
825.948
781.275
762.341
781.275
825.948
852.851
858.017
857.951
853.952
834.259
802.025
788.189
802.025
834.259
853.952
857.951
857.932
854.815
840.404
817.392
807.449
817.392
840.404
854.815
857.932
857.932
855.477
844.922
828.635
821.55
828.635
844.922
855.477
857.932
857.929
855.988
848.298
836.832
831.763
836.832
848.299
855.988
857.93
857.937
856.457
851.002
843.024
839.418
843.025
851.003
856.458
857.938
857.994
856.987
853.046
846.852
843.874
846.853
853.047
856.989
857.995
858.079
857.574
854.991
849.935
847.033
849.936
854.992
857.575
858.08
858.167
858.102
857.082
854.055
851.645
854.054
857.082
858.103
858.172
)
;

boundaryField
{
    injectionXMinus
    {
        type            uniformFixedValue;
        uniformValue    uniform 400;
        value           uniform 400;
    }
    injectionXPlus
    {
        type            uniformFixedValue;
        uniformValue    uniform 400;
        value           uniform 400;
    }
    injectionYMinus
    {
        type            uniformFixedValue;
        uniformValue    uniform 400;
        value           uniform 400;
    }
    injectionYPlus
    {
        type            uniformFixedValue;
        uniformValue    uniform 400;
        value           uniform 400;
    }
    inletXMinus
    {
        type            uniformFixedValue;
        uniformValue    uniform 293.15;
        value           uniform 293.15;
    }
    inletXPlus
    {
        type            uniformFixedValue;
        uniformValue    uniform 293.15;
        value           uniform 293.15;
    }
    inletYMinus
    {
        type            uniformFixedValue;
        uniformValue    uniform 293.15;
        value           uniform 293.15;
    }
    inletYPlus
    {
        type            uniformFixedValue;
        uniformValue    uniform 293.15;
        value           uniform 293.15;
    }
    outlet
    {
        type            zeroGradient;
    }
    valve
    {
        type            zeroGradient;
    }
    walls
    {
        type            zeroGradient;
    }
}


// ************************************************************************* //
