/*--------------------------------*- C++ -*----------------------------------*\
  =========                 |
  \\      /  F ield         | OpenFOAM: The Open Source CFD Toolbox
   \\    /   O peration     | Website:  https://openfoam.org
    \\  /    A nd           | Version:  6
     \\/     M anipulation  |
\*---------------------------------------------------------------------------*/
FoamFile
{
    version     2.0;
    format      ascii;
    class       volScalarField;
    location    "0.3";
    object      alpha_exh;
}
// * * * * * * * * * * * * * * * * * * * * * * * * * * * * * * * * * * * * * //

dimensions      [0 0 0 0 0 0 0];

internalField   nonuniform List<scalar> 
3029
(
8.35552e-05
4.56219e-05
0.000518452
-0.00131145
0.0599911
-0.00131112
0.000518691
4.57334e-05
8.2882e-05
0.000116145
8.36551e-05
0.000667996
-0.0005959
0.0654634
-0.000595192
0.000668402
8.4136e-05
0.000116059
0.000375994
0.000526486
0.00100763
0.00303806
0.086318
0.00303928
0.00100896
0.00052797
0.000376119
0.00118013
0.00182239
0.00147234
0.014557
0.124084
0.0145586
0.00147501
0.00182533
0.0011805
0.00427908
0.00639228
0.00762746
0.0428987
0.180049
0.0429004
0.00763157
0.00639717
0.00428003
0.0165051
0.0223202
0.0312294
0.0960834
0.253166
0.0960845
0.0312346
0.0223271
0.0165067
0.0487452
0.0606652
0.0829097
0.175936
0.339656
0.175936
0.0829156
0.0606739
0.048748
0.108987
0.127823
0.164829
0.27683
0.433645
0.276829
0.164835
0.127833
0.108991
0.196929
0.221358
0.269978
0.388664
0.528597
0.388663
0.269984
0.221369
0.196934
0.304515
0.331898
0.386548
0.5009
0.618729
0.500898
0.386553
0.331908
0.30452
0.420176
0.447748
0.502829
0.605344
0.699942
0.605342
0.502833
0.447757
0.420181
0.533017
0.558711
0.610128
0.696934
0.769623
0.696932
0.610131
0.558719
0.533021
0.635074
0.657754
0.703266
0.774567
0.829527
0.774565
0.703268
0.65776
0.635078
0.721802
0.741638
0.781656
0.834457
0.867622
0.834455
0.781658
0.741643
0.721805
0.791719
0.807695
0.838758
0.901973
0.964316
0.901971
0.838759
0.807699
0.791722
0.844354
0.862742
0.921119
0.882063
0.552607
0.882064
0.921119
0.862744
0.844356
0.886578
0.909084
0.81653
0.295432
-0.00750274
0.295434
0.816531
0.909086
0.88658
0.921076
0.919611
0.623498
0.0421808
-0.0272314
0.0421828
0.623501
0.919613
0.921078
0.945743
0.913863
0.513007
-0.0300579
-0.0346193
-0.0300561
0.513012
0.913865
0.945744
0.961996
0.907601
0.467901
-0.0422084
-0.0362713
-0.0422063
0.467906
0.907603
0.961997
0.972437
0.904274
0.456923
-0.0336962
-0.0352418
-0.0336936
0.456929
0.904277
0.972438
0.979042
0.903134
0.462457
-0.0158303
-0.0312391
-0.0158274
0.462464
0.903136
0.979042
0.983063
0.903192
0.477012
0.00963875
-0.0219768
0.00964207
0.47702
0.903195
0.983063
0.985324
0.903981
0.497789
0.0438037
-0.00423645
0.0438073
0.497796
0.903983
0.985324
0.98643
0.905362
0.523433
0.0876561
0.0247765
0.0876598
0.52344
0.905365
0.98643
0.986847
0.907272
0.552774
0.140991
0.0663675
0.140995
0.55278
0.907275
0.986848
0.986923
0.909578
0.584487
0.202384
0.120022
0.202388
0.584492
0.90958
0.986924
0.986864
0.912073
0.617262
0.269646
0.183718
0.269649
0.617266
0.912074
0.986864
0.986707
0.914672
0.650566
0.340983
0.25518
0.340986
0.65057
0.914673
0.986708
0.986335
0.917731
0.684939
0.414358
0.330824
0.414359
0.684941
0.917732
0.986336
0.986034
0.92351
0.72642
0.500218
0.423751
0.500219
0.726421
0.923511
0.986034
0.987572
0.93597
0.7672
0.55936
0.481683
0.55936
0.767201
0.935971
0.987572
0.991493
0.958944
0.824955
0.613981
0.514566
0.613981
0.824956
0.958944
0.991494
0.997088
0.988114
0.921546
0.752497
0.627017
0.752496
0.921546
0.988114
0.997089
4.55914e-05
0.00116234
0.000915236
0.00868493
0.109266
0.00868652
0.000916887
0.0011634
4.54077e-05
8.36724e-05
0.00134555
0.00119769
0.0116835
0.119711
0.0116855
0.00119994
0.00134744
8.41873e-05
0.000526552
0.0026634
0.00261854
0.0235174
0.14906
0.0235198
0.00262182
0.00266656
0.000528241
0.00182251
0.00553
0.00833363
0.0506175
0.197981
0.05062
0.00833824
0.00553506
0.0018259
0.00639248
0.0143114
0.0272444
0.0998286
0.264777
0.0998309
0.0272503
0.0143187
0.00639802
0.0223205
0.038622
0.0695461
0.173424
0.345301
0.173426
0.0695527
0.0386315
0.0223284
0.0606656
0.0880915
0.140003
0.267395
0.433801
0.267396
0.14001
0.0881026
0.0606757
0.127824
0.165578
0.235024
0.373255
0.524095
0.373255
0.235031
0.16559
0.127835
0.221359
0.265669
0.345076
0.481419
0.61071
0.481418
0.345081
0.265681
0.221372
0.331899
0.377968
0.459026
0.583834
0.689597
0.583832
0.459031
0.37798
0.331911
0.447748
0.491444
0.567471
0.675172
0.758368
0.67517
0.567475
0.491454
0.447759
0.558712
0.597345
0.66422
0.752805
0.81595
0.752803
0.664223
0.597353
0.558722
0.657754
0.690163
0.746103
0.816251
0.863231
0.816249
0.746106
0.69017
0.657762
0.741638
0.767511
0.813053
0.86674
0.89747
0.866739
0.813054
0.767516
0.741645
0.807696
0.828842
0.863075
0.902882
0.938909
0.90288
0.863076
0.828846
0.807701
0.862742
0.875058
0.910605
0.958422
0.912251
0.958421
0.910605
0.875061
0.862746
0.909084
0.91411
0.924273
0.74075
0.387654
0.740751
0.924273
0.914112
0.909087
0.919612
0.941273
0.879159
0.476971
0.117623
0.476974
0.87916
0.941274
0.919614
0.913863
0.954532
0.833229
0.347371
0.0413359
0.347374
0.833232
0.954533
0.913865
0.907601
0.958945
0.804405
0.300366
0.0306652
0.30037
0.804408
0.958946
0.907603
0.904275
0.958786
0.789065
0.291986
0.0425195
0.291991
0.789069
0.958787
0.904277
0.903134
0.956336
0.781622
0.301608
0.0645052
0.301613
0.781626
0.956337
0.903136
0.903193
0.952816
0.778994
0.32159
0.0942743
0.321596
0.778999
0.952817
0.903195
0.903982
0.949007
0.779927
0.349749
0.132581
0.349754
0.779931
0.949009
0.903983
0.905364
0.945461
0.783995
0.385318
0.180241
0.385323
0.783999
0.945463
0.905365
0.907274
0.942514
0.790915
0.427742
0.237387
0.427746
0.790919
0.942516
0.907275
0.90958
0.940256
0.800354
0.47665
0.30399
0.476653
0.800357
0.940258
0.909581
0.912075
0.938468
0.811998
0.532399
0.380778
0.532402
0.812001
0.938469
0.912076
0.914674
0.936817
0.82662
0.597955
0.471651
0.597957
0.826622
0.936818
0.914675
0.917734
0.933987
0.843309
0.675993
0.580219
0.675994
0.84331
0.933988
0.917734
0.923512
0.93469
0.88911
0.803933
0.752135
0.803934
0.88911
0.93469
0.923513
0.935972
0.938712
0.904083
0.843454
0.805387
0.843454
0.904083
0.938712
0.935973
0.958945
0.956129
0.896232
0.77681
0.712555
0.776809
0.896232
0.956129
0.958946
0.988115
0.989395
0.941886
0.787351
0.667235
0.78735
0.941885
0.989395
0.988115
0.000518421
0.000915426
0.00276172
0.0722125
0.256381
0.0722141
0.00276469
0.000917236
0.000518455
0.000668076
0.00119807
0.00485242
0.0839114
0.274694
0.0839133
0.00485621
0.00120079
0.000668661
0.00100793
0.00261919
0.0143571
0.116212
0.31564
0.116214
0.0143616
0.00262332
0.00100989
0.00147299
0.00833464
0.0390014
0.17191
0.375454
0.171911
0.0390065
0.00834066
0.00147699
0.00762857
0.0272459
0.0868211
0.24933
0.447758
0.249331
0.0868263
0.0272537
0.00763481
0.031231
0.0695479
0.160464
0.342225
0.525754
0.342225
0.160469
0.0695571
0.0312395
0.0829119
0.140006
0.255595
0.442114
0.60353
0.442113
0.255598
0.140015
0.082922
0.164832
0.235027
0.363195
0.540865
0.676641
0.540863
0.363198
0.235036
0.164843
0.269981
0.345078
0.473235
0.632307
0.742218
0.632305
0.473237
0.345087
0.269992
0.386551
0.459028
0.577379
0.712694
0.798788
0.712692
0.57738
0.459036
0.386561
0.502831
0.567473
0.670128
0.780421
0.845973
0.78042
0.670128
0.567479
0.502841
0.61013
0.664221
0.748782
0.835481
0.884167
0.835479
0.748782
0.664226
0.610138
0.703268
0.746105
0.81277
0.878745
0.914055
0.878743
0.81277
0.746109
0.703274
0.781658
0.813054
0.863061
0.912153
0.937591
0.912152
0.863061
0.813057
0.781663
0.838759
0.863076
0.900789
0.934644
0.949676
0.934643
0.900789
0.863078
0.838762
0.92112
0.910605
0.928452
0.958981
0.9872
0.95898
0.928452
0.910607
0.921122
0.816531
0.924274
0.949788
0.961074
0.895441
0.961074
0.949788
0.924275
0.816533
0.623499
0.879159
0.96033
0.912367
0.725352
0.912367
0.96033
0.87916
0.623501
0.513008
0.83323
0.96124
0.865324
0.628016
0.865325
0.96124
0.833231
0.513011
0.467902
0.804406
0.957051
0.83575
0.589013
0.835752
0.957051
0.804407
0.467905
0.456925
0.789067
0.950596
0.819733
0.580496
0.819735
0.950596
0.789068
0.456928
0.462459
0.781623
0.94332
0.811822
0.586866
0.811825
0.94332
0.781624
0.462463
0.477015
0.778996
0.936079
0.809076
0.601478
0.809079
0.93608
0.778997
0.477018
0.497791
0.779929
0.929555
0.810096
0.621682
0.810099
0.929556
0.77993
0.497795
0.523436
0.783998
0.924279
0.814524
0.64649
0.814526
0.92428
0.783999
0.523439
0.552778
0.790919
0.920585
0.822397
0.675727
0.8224
0.920586
0.79092
0.552781
0.584491
0.800358
0.918613
0.834033
0.709919
0.834035
0.918614
0.800359
0.584493
0.617266
0.812002
0.918411
0.850379
0.750857
0.85038
0.918412
0.812003
0.617268
0.650571
0.826624
0.920599
0.873948
0.802728
0.873949
0.9206
0.826625
0.650572
0.684944
0.843312
0.926951
0.911902
0.874987
0.911903
0.926951
0.843313
0.684944
0.726424
0.889113
0.979625
0.988185
0.988536
0.988184
0.979625
0.889113
0.726425
0.767204
0.904085
0.904085
0.767204
0.824959
0.896234
0.924549
0.858512
0.789229
0.858512
0.924549
0.896234
0.824959
0.921548
0.941888
0.945024
0.846753
0.741309
0.846752
0.945023
0.941888
0.921548
0.953137
0.85641
0.745258
0.856409
0.953136
0.956294
0.865865
0.758588
0.865865
0.956294
0.958122
0.873598
0.772301
0.873597
0.958122
0.959515
0.880348
0.785351
0.880347
0.959514
0.960805
0.886589
0.797715
0.886589
0.960804
0.962074
0.892513
0.809479
0.892513
0.962074
0.963348
0.898188
0.820688
0.898188
0.963347
0.964628
0.903638
0.831373
0.903638
0.964627
0.965907
0.908859
0.841525
0.90886
0.965907
0.967218
0.913951
0.851329
0.913952
0.967218
0.968368
0.918377
0.859821
0.918378
0.968367
0.970486
0.925413
0.872951
0.925414
0.970485
-0.00131114
0.00868638
0.0722141
0.293457
0.546861
0.293456
0.0722173
0.00868939
-0.0013108
-0.000594958
0.0116856
0.0839133
0.314789
0.565064
0.314788
0.0839167
0.0116896
-0.000593161
0.00303976
0.0235203
0.116215
0.361095
0.600315
0.361093
0.116218
0.0235254
0.00304297
0.0145596
0.0506212
0.171912
0.426982
0.646483
0.426979
0.171915
0.0506275
0.0145646
0.0429025
0.0998331
0.249333
0.503978
0.697054
0.503975
0.249335
0.0998402
0.0429088
0.0960881
0.17343
0.342228
0.58377
0.747082
0.583767
0.342228
0.173437
0.0960957
0.175941
0.2674
0.442116
0.660009
0.793487
0.660006
0.442116
0.267407
0.175949
0.276836
0.373261
0.540867
0.72874
0.834664
0.728737
0.540865
0.373267
0.276844
0.38867
0.481424
0.632309
0.788053
0.869999
0.78805
0.632307
0.481428
0.388677
0.500905
0.583838
0.712695
0.837492
0.899496
0.837489
0.712693
0.583842
0.500912
0.605349
0.675175
0.780423
0.877515
0.923521
0.877512
0.78042
0.675178
0.605354
0.696937
0.752808
0.835482
0.909081
0.942644
0.909079
0.835479
0.752809
0.696942
0.77457
0.816253
0.878745
0.933336
0.957465
0.933334
0.878743
0.816254
0.774574
0.834459
0.866742
0.912153
0.951524
0.968843
0.951522
0.912151
0.866743
0.834462
0.901974
0.902883
0.934644
0.964617
0.976401
0.964616
0.934643
0.902883
0.901976
0.882065
0.958423
0.958981
0.97298
0.983447
0.972979
0.95898
0.958423
0.882067
0.295433
0.740751
0.961075
0.98413
0.994001
0.984129
0.961074
0.740751
0.295435
0.0421812
0.476972
0.912367
0.993169
0.989949
0.993169
0.912366
0.476973
0.0421832
-0.0300576
0.347372
0.865325
0.995422
0.979439
0.995422
0.865324
0.347373
-0.0300556
-0.0422081
0.300367
0.835751
0.99293
0.970122
0.99293
0.83575
0.300369
-0.0422059
-0.0336959
0.291987
0.819734
0.988163
0.963331
0.988163
0.819733
0.291989
-0.0336933
-0.0158301
0.30161
0.811825
0.982532
0.958444
0.982532
0.811823
0.301611
-0.0158272
0.00963892
0.321592
0.809079
0.9768
0.954914
0.9768
0.809078
0.321594
0.00964195
0.0438039
0.349751
0.810099
0.97153
0.952534
0.97153
0.810098
0.349753
0.0438069
0.0876563
0.385321
0.814527
0.96714
0.951348
0.96714
0.814526
0.385322
0.0876591
0.140991
0.427745
0.822401
0.964005
0.951556
0.964005
0.8224
0.427746
0.140994
0.202385
0.476653
0.834037
0.962507
0.953489
0.962507
0.834037
0.476654
0.202387
0.269646
0.532402
0.850383
0.963179
0.95771
0.963179
0.850382
0.532403
0.269648
0.340984
0.597959
0.873952
0.966972
0.965156
0.966972
0.873951
0.597959
0.340985
0.414358
0.675996
0.911905
0.976244
0.977232
0.976244
0.911905
0.675996
0.414359
0.500219
0.803936
0.988186
0.988796
0.990237
0.988796
0.988186
0.803936
0.500219
0.559361
0.843456
0.843456
0.559361
0.613983
0.776812
0.858514
0.89101
0.856964
0.891009
0.858514
0.776811
0.613982
0.752499
0.787353
0.846755
0.882129
0.840672
0.882128
0.846754
0.787352
0.752498
0.856412
0.881503
0.839092
0.881502
0.856411
0.865867
0.884944
0.844324
0.884944
0.865866
0.873599
0.889524
0.851364
0.889523
0.873599
0.880349
0.89433
0.858728
0.894329
0.880349
0.88659
0.899113
0.865981
0.899112
0.88659
0.892514
0.903802
0.873008
0.903802
0.892514
0.898189
0.908375
0.87978
0.908375
0.898188
0.903639
0.912824
0.886292
0.912823
0.903639
0.90886
0.91713
0.892527
0.91713
0.90886
0.913952
0.921378
0.898604
0.921378
0.913951
0.918378
0.925082
0.903876
0.925082
0.918377
0.925414
0.931133
0.912276
0.931133
0.925413
0.0599929
0.109269
0.256384
0.546861
0.774974
0.546858
0.256385
0.109272
0.0599933
0.0654665
0.119715
0.274697
0.565064
0.784647
0.565061
0.274699
0.119719
0.0654688
0.0863222
0.149066
0.315644
0.600315
0.80226
0.600312
0.315645
0.14907
0.0863258
0.124089
0.197987
0.375458
0.646483
0.824389
0.64648
0.375459
0.197991
0.124094
0.180055
0.264783
0.447761
0.697053
0.848054
0.697052
0.447762
0.264788
0.18006
0.253173
0.345307
0.525756
0.747081
0.871289
0.74708
0.525757
0.345312
0.253179
0.339663
0.433807
0.603532
0.793486
0.892993
0.793485
0.603532
0.433812
0.339669
0.433651
0.5241
0.676643
0.834663
0.912595
0.83466
0.676642
0.524105
0.433657
0.528602
0.610715
0.742219
0.869998
0.929829
0.869994
0.742217
0.610719
0.528608
0.618734
0.6896
0.798789
0.899495
0.944616
0.899491
0.798786
0.689604
0.618739
0.699945
0.758371
0.845974
0.92352
0.957006
0.923516
0.84597
0.758373
0.69995
0.769626
0.815952
0.884167
0.942643
0.967147
0.942638
0.884163
0.815953
0.76963
0.829529
0.863232
0.914055
0.957465
0.975245
0.95746
0.914051
0.863233
0.829532
0.867623
0.897471
0.937591
0.968842
0.981549
0.968838
0.937587
0.897471
0.867626
0.964317
0.938909
0.949676
0.976401
0.986404
0.976397
0.949673
0.938909
0.964319
0.552608
0.912251
0.9872
0.983447
0.989182
0.983444
0.987197
0.912252
0.55261
-0.0075026
0.387655
0.895441
0.994001
0.99376
0.993998
0.895439
0.387656
-0.00750155
-0.0272314
0.117623
0.725353
0.989949
1.00067
0.989947
0.725351
0.117624
-0.0272306
-0.0346194
0.041336
0.628017
0.979439
1.00551
0.979437
0.628015
0.0413374
-0.0346184
-0.0362715
0.0306652
0.589014
0.970123
1.00716
0.970121
0.589012
0.0306666
-0.0362702
-0.0352422
0.0425193
0.580497
0.963331
1.0064
0.963329
0.580494
0.0425207
-0.0352406
-0.0312399
0.0645047
0.586867
0.958444
1.00419
0.958443
0.586865
0.0645061
-0.031238
-0.021978
0.0942734
0.60148
0.954915
1.00119
0.954913
0.601477
0.0942747
-0.021976
-0.00423815
0.13258
0.621684
0.952536
0.997959
0.952534
0.621681
0.132581
-0.00423613
0.0247741
0.180239
0.646492
0.951349
0.99484
0.951348
0.64649
0.18024
0.024776
0.0663645
0.237386
0.675729
0.951557
0.992055
0.951556
0.675727
0.237386
0.0663661
0.120018
0.303988
0.709921
0.953491
0.989774
0.95349
0.70992
0.303989
0.120019
0.183714
0.380776
0.750859
0.957711
0.988155
0.957711
0.750858
0.380776
0.183715
0.255176
0.471649
0.802731
0.965157
0.9874
0.965157
0.80273
0.471649
0.255176
0.330819
0.580218
0.874989
0.977233
0.988057
0.977233
0.874989
0.580218
0.330819
0.423747
0.752135
0.988537
0.990237
0.991889
0.990237
0.988537
0.752135
0.423747
0.481679
0.805387
0.805387
0.481678
0.514562
0.712554
0.789229
0.856964
0.892382
0.856964
0.789228
0.712554
0.514561
0.627013
0.667232
0.741307
0.840672
0.888962
0.840672
0.741307
0.667232
0.627013
0.745256
0.839091
0.88888
0.839091
0.745256
0.758587
0.844323
0.89146
0.844323
0.758587
0.7723
0.851363
0.895136
0.851363
0.7723
0.785349
0.858728
0.899192
0.858727
0.785349
0.797714
0.865981
0.903337
0.865979
0.797713
0.809477
0.873008
0.907464
0.873007
0.809477
0.820687
0.87978
0.911532
0.879778
0.820686
0.831372
0.886291
0.915527
0.88629
0.831371
0.841524
0.892527
0.919424
0.892525
0.841523
0.851329
0.898604
0.923303
0.898602
0.851328
0.85982
0.903876
0.926692
0.903874
0.85982
0.87295
0.912276
0.932382
0.912274
0.872949
-0.00131005
0.0086896
0.0722176
0.293456
0.546857
0.293455
0.0722191
0.00869089
-0.00131023
-0.000593414
0.0116893
0.0839171
0.314788
0.56506
0.314787
0.0839191
0.0116913
-0.000592563
0.0030421
0.0235244
0.116218
0.361093
0.600311
0.361091
0.11622
0.023527
0.00304374
0.0145626
0.0506255
0.171915
0.426979
0.646479
0.426977
0.171916
0.0506284
0.0145653
0.0429055
0.0998369
0.249334
0.503974
0.69705
0.503972
0.249335
0.09984
0.0429092
0.0960903
0.173432
0.342227
0.583765
0.747079
0.583763
0.342227
0.173435
0.0960952
0.175942
0.267401
0.442115
0.660004
0.793483
0.660001
0.442114
0.267404
0.175948
0.276835
0.37326
0.540864
0.728735
0.834659
0.728731
0.540863
0.373263
0.276841
0.388668
0.481422
0.632306
0.788048
0.869993
0.788043
0.632304
0.481425
0.388674
0.500902
0.583836
0.712692
0.837488
0.89949
0.837481
0.712689
0.583838
0.500908
0.605345
0.675173
0.78042
0.877511
0.923515
0.877504
0.780416
0.675175
0.605351
0.696934
0.752805
0.835479
0.909078
0.942638
0.90907
0.835475
0.752807
0.696939
0.774567
0.816251
0.878743
0.933334
0.95746
0.933326
0.878739
0.816252
0.774571
0.834457
0.86674
0.912152
0.951522
0.968838
0.951515
0.912147
0.866741
0.83446
0.901972
0.902881
0.934643
0.964616
0.976397
0.96461
0.934639
0.902882
0.901975
0.882065
0.958422
0.95898
0.972979
0.983444
0.972974
0.958976
0.958422
0.882067
0.295434
0.740751
0.961074
0.984129
0.993998
0.984125
0.961071
0.740752
0.295435
0.0421829
0.476974
0.912367
0.993169
0.989947
0.993165
0.912365
0.476975
0.0421839
-0.0300562
0.347374
0.865325
0.995422
0.979437
0.995419
0.865323
0.347374
-0.0300552
-0.0422067
0.30037
0.835752
0.99293
0.970121
0.992927
0.835749
0.30037
-0.0422055
-0.0336944
0.29199
0.819735
0.988163
0.96333
0.988161
0.819732
0.29199
-0.0336931
-0.0158287
0.301612
0.811825
0.982532
0.958443
0.98253
0.811822
0.301611
-0.0158273
0.00964005
0.321594
0.809079
0.9768
0.954914
0.976798
0.809076
0.321593
0.00964149
0.0438044
0.349751
0.810099
0.97153
0.952535
0.971529
0.810096
0.349751
0.0438058
0.087656
0.38532
0.814526
0.967141
0.951349
0.96714
0.814524
0.385319
0.0876572
0.14099
0.427742
0.822399
0.964005
0.951557
0.964005
0.822397
0.427742
0.140991
0.202382
0.476649
0.834035
0.962508
0.953491
0.962507
0.834033
0.476649
0.202383
0.269642
0.532397
0.85038
0.963179
0.957712
0.963179
0.850379
0.532397
0.269643
0.340979
0.597953
0.873949
0.966972
0.965158
0.966972
0.873948
0.597952
0.340979
0.414352
0.67599
0.911903
0.976245
0.977234
0.976245
0.911903
0.67599
0.414352
0.500212
0.803932
0.988185
0.988796
0.990238
0.988796
0.988185
0.803932
0.500212
0.559354
0.843452
0.843452
0.559354
0.613974
0.776806
0.85851
0.891008
0.856964
0.891008
0.85851
0.776806
0.613974
0.752491
0.787346
0.846749
0.882126
0.840672
0.882127
0.84675
0.787346
0.752492
0.856406
0.8815
0.839091
0.881501
0.856407
0.865862
0.884941
0.844323
0.884942
0.865863
0.873594
0.889521
0.851363
0.889521
0.873595
0.880345
0.894327
0.858727
0.894327
0.880345
0.886586
0.89911
0.865979
0.89911
0.886587
0.892511
0.9038
0.873007
0.903799
0.892511
0.898186
0.908373
0.879778
0.908372
0.898186
0.903636
0.912822
0.88629
0.912821
0.903636
0.908858
0.917128
0.892525
0.917127
0.908857
0.91395
0.921377
0.898602
0.921375
0.913949
0.918376
0.925081
0.903873
0.925079
0.918375
0.925412
0.931132
0.912273
0.93113
0.925412
0.000518984
0.000918661
0.00276749
0.0722193
0.256386
0.0722195
0.00276857
0.000919196
0.000518839
0.000668841
0.0012021
0.00485939
0.0839188
0.2747
0.0839195
0.00486079
0.001203
0.000669015
0.00101025
0.00262478
0.0143653
0.11622
0.315645
0.11622
0.014367
0.00262617
0.00101079
0.00147751
0.00834231
0.0390106
0.171916
0.375459
0.171916
0.0390125
0.00834431
0.00147871
0.0076354
0.0272554
0.0868305
0.249336
0.447762
0.249335
0.0868326
0.0272581
0.00763722
0.0312396
0.0695585
0.160473
0.342229
0.525757
0.342228
0.160474
0.0695617
0.0312422
0.0829213
0.140016
0.255602
0.442116
0.603532
0.442115
0.255603
0.14002
0.0829246
0.164841
0.235036
0.3632
0.540865
0.676642
0.540863
0.363201
0.23504
0.164845
0.269989
0.345086
0.473239
0.632306
0.742217
0.632304
0.473239
0.34509
0.269993
0.386558
0.459035
0.577382
0.712691
0.798786
0.712689
0.577381
0.459038
0.386562
0.502837
0.567478
0.670129
0.780419
0.84597
0.780416
0.670129
0.567481
0.502841
0.610134
0.664225
0.748783
0.835479
0.884163
0.835475
0.748782
0.664227
0.610137
0.703271
0.746107
0.812771
0.878742
0.914051
0.878739
0.812769
0.746109
0.703274
0.78166
0.813055
0.863061
0.912151
0.937587
0.912147
0.86306
0.813057
0.781662
0.83876
0.863077
0.900789
0.934642
0.949672
0.934639
0.900788
0.863078
0.838762
0.92112
0.910606
0.928452
0.958979
0.987197
0.958976
0.92845
0.910606
0.921122
0.816532
0.924274
0.949788
0.961073
0.895439
0.961071
0.949786
0.924274
0.816533
0.623501
0.87916
0.960329
0.912366
0.725351
0.912365
0.960328
0.87916
0.623502
0.513011
0.833232
0.96124
0.865324
0.628016
0.865323
0.961238
0.833231
0.513012
0.467905
0.804408
0.957051
0.83575
0.589013
0.83575
0.95705
0.804407
0.467906
0.456928
0.789069
0.950596
0.819733
0.580495
0.819733
0.950595
0.789068
0.456929
0.462462
0.781625
0.94332
0.811823
0.586866
0.811824
0.943319
0.781624
0.462462
0.477017
0.778997
0.936079
0.809078
0.601479
0.809079
0.936079
0.778996
0.477017
0.497793
0.77993
0.929555
0.810098
0.621683
0.810099
0.929555
0.779929
0.497793
0.523436
0.783997
0.924279
0.814526
0.646492
0.814527
0.924279
0.783996
0.523436
0.552776
0.790917
0.920585
0.8224
0.675729
0.822401
0.920585
0.790916
0.552776
0.584487
0.800354
0.918613
0.834036
0.709922
0.834037
0.918613
0.800354
0.584487
0.617261
0.811998
0.918411
0.850381
0.75086
0.850382
0.918411
0.811997
0.617261
0.650564
0.826619
0.920598
0.873951
0.802732
0.873951
0.920598
0.826619
0.650564
0.684936
0.843307
0.92695
0.911905
0.87499
0.911905
0.92695
0.843307
0.684936
0.726416
0.889108
0.979625
0.988186
0.988538
0.988186
0.979626
0.889109
0.726416
0.767196
0.904081
0.904081
0.767196
0.824951
0.896229
0.924547
0.858512
0.789228
0.858512
0.924547
0.89623
0.824952
0.921543
0.941884
0.945022
0.846751
0.741307
0.846752
0.945022
0.941885
0.921544
0.953135
0.856408
0.745255
0.856409
0.953136
0.956292
0.865864
0.758586
0.865865
0.956293
0.95812
0.873596
0.772299
0.873597
0.958121
0.959513
0.880346
0.785349
0.880347
0.959514
0.960803
0.886587
0.797713
0.886588
0.960804
0.962072
0.892512
0.809477
0.892512
0.962074
0.963346
0.898186
0.820686
0.898187
0.963347
0.964626
0.903637
0.831371
0.903638
0.964627
0.965905
0.908858
0.841523
0.908858
0.965906
0.967217
0.91395
0.851327
0.91395
0.967217
0.968366
0.918376
0.859819
0.918376
0.968367
0.970484
0.925412
0.872949
0.925412
0.970485
4.60426e-05
0.00116455
0.000918645
0.00869088
0.109273
0.00869113
0.000919179
0.00116489
4.59041e-05
8.45662e-05
0.0013488
0.00120235
0.0116912
0.11972
0.0116915
0.00120298
0.00134939
8.47502e-05
0.00052898
0.00266844
0.00262537
0.0235272
0.149071
0.0235273
0.00262615
0.00266931
0.000529475
0.0018272
0.00553778
0.00834337
0.0506293
0.197992
0.0506289
0.0083443
0.00553906
0.00182828
0.00640006
0.0143224
0.027257
0.0998418
0.264788
0.0998406
0.0272581
0.0143241
0.00640164
0.0223309
0.0386361
0.0695607
0.173438
0.345312
0.173436
0.0695618
0.0386381
0.0223333
0.0606786
0.0881077
0.140019
0.267408
0.433812
0.267405
0.14002
0.0881099
0.0606814
0.127838
0.165595
0.235039
0.373267
0.524105
0.373264
0.23504
0.165598
0.127842
0.221374
0.265686
0.345089
0.481428
0.610719
0.481425
0.34509
0.265688
0.221377
0.331913
0.377984
0.459038
0.583841
0.689603
0.583839
0.459038
0.377986
0.331916
0.44776
0.491457
0.567481
0.675177
0.758373
0.675175
0.567481
0.491459
0.447764
0.558722
0.597355
0.664227
0.752809
0.815953
0.752807
0.664227
0.597357
0.558725
0.657762
0.690171
0.746109
0.816253
0.863233
0.816252
0.746109
0.690173
0.657765
0.741644
0.767517
0.813057
0.866742
0.897471
0.866741
0.813057
0.767518
0.741646
0.8077
0.828847
0.863078
0.902882
0.938909
0.902882
0.863078
0.828848
0.807702
0.862745
0.875061
0.910607
0.958423
0.912252
0.958422
0.910606
0.875062
0.862746
0.909086
0.914112
0.924274
0.740751
0.387656
0.740752
0.924274
0.914113
0.909087
0.919613
0.941274
0.87916
0.476973
0.117624
0.476975
0.879161
0.941274
0.919614
0.913865
0.954533
0.833231
0.347373
0.0413373
0.347375
0.833232
0.954533
0.913865
0.907603
0.958946
0.804406
0.300368
0.0306665
0.300371
0.804408
0.958947
0.907604
0.904277
0.958787
0.789067
0.291988
0.0425205
0.291991
0.789069
0.958787
0.904277
0.903136
0.956337
0.781623
0.30161
0.0645057
0.301613
0.781626
0.956337
0.903136
0.903194
0.952817
0.778996
0.321592
0.0942743
0.321595
0.778998
0.952817
0.903194
0.903983
0.949008
0.779928
0.34975
0.132581
0.349754
0.779931
0.949008
0.903983
0.905364
0.945462
0.783997
0.385319
0.18024
0.385322
0.783999
0.945462
0.905364
0.907274
0.942515
0.790917
0.427743
0.237386
0.427745
0.790919
0.942515
0.907274
0.909579
0.940257
0.800355
0.47665
0.303989
0.476652
0.800357
0.940257
0.909579
0.912073
0.938468
0.811999
0.532399
0.380776
0.532401
0.812001
0.938468
0.912073
0.914671
0.936817
0.826621
0.597955
0.471649
0.597956
0.826622
0.936817
0.914671
0.917731
0.933986
0.843309
0.675993
0.580218
0.675994
0.84331
0.933986
0.917731
0.923509
0.934688
0.889111
0.803934
0.752135
0.803935
0.889111
0.934689
0.923509
0.935969
0.93871
0.904083
0.843455
0.805388
0.843455
0.904083
0.938711
0.935969
0.958943
0.956127
0.896232
0.776809
0.712554
0.776809
0.896232
0.956128
0.958943
0.988114
0.989394
0.941886
0.787348
0.667231
0.787349
0.941886
0.989395
0.988114
8.30456e-05
4.57634e-05
0.000518721
-0.00131024
0.0599939
-0.00131012
0.000518833
4.59048e-05
8.3037e-05
0.00011625
8.45349e-05
0.000668894
-0.000592635
0.0654694
-0.000592456
0.000669008
8.47505e-05
0.000116456
0.000376676
0.000529007
0.00101051
0.00304365
0.0863263
0.00304391
0.00101078
0.000529476
0.000377283
0.00118165
0.0018273
0.00147818
0.0145654
0.124094
0.0145656
0.00147869
0.00182828
0.00118305
0.00428192
0.00640017
0.00763656
0.0429097
0.180061
0.0429097
0.0076372
0.00640163
0.00428404
0.0165094
0.0223312
0.0312416
0.0960963
0.253179
0.0960958
0.0312422
0.0223333
0.0165125
0.0487512
0.060679
0.0829242
0.175949
0.339669
0.175948
0.0829247
0.0606814
0.048755
0.108994
0.127839
0.164845
0.276844
0.433657
0.276842
0.164845
0.127842
0.108999
0.196937
0.221375
0.269994
0.388677
0.528608
0.388675
0.269994
0.221377
0.196942
0.304523
0.331914
0.386563
0.500911
0.618739
0.500909
0.386562
0.331916
0.304527
0.420184
0.447762
0.502841
0.605354
0.69995
0.605352
0.502841
0.447764
0.420188
0.533023
0.558723
0.610138
0.696941
0.769629
0.69694
0.610138
0.558725
0.533027
0.635079
0.657763
0.703274
0.774573
0.829532
0.774572
0.703274
0.657765
0.635083
0.721806
0.741645
0.781662
0.834461
0.867626
0.83446
0.781662
0.741646
0.721809
0.791723
0.807701
0.838762
0.901975
0.964319
0.901975
0.838762
0.807702
0.791725
0.844356
0.862746
0.921122
0.882067
0.552611
0.882067
0.921122
0.862746
0.844358
0.88658
0.909087
0.816533
0.295435
-0.00750161
0.295436
0.816533
0.909087
0.886581
0.921078
0.919614
0.623501
0.042183
-0.0272307
0.0421841
0.623503
0.919614
0.921079
0.945744
0.913865
0.513011
-0.030056
-0.0346185
-0.0300551
0.513013
0.913865
0.945745
0.961997
0.907603
0.467904
-0.0422064
-0.0362705
-0.0422054
0.467907
0.907604
0.961997
0.972438
0.904276
0.456927
-0.0336942
-0.035241
-0.033693
0.45693
0.904278
0.972438
0.979042
0.903135
0.462461
-0.0158285
-0.0312386
-0.0158271
0.462464
0.903137
0.979042
0.983063
0.903194
0.477016
0.00964019
-0.0219767
0.00964178
0.477019
0.903195
0.983063
0.985325
0.903982
0.497792
0.0438045
-0.0042371
0.0438062
0.497795
0.903984
0.985325
0.98643
0.905363
0.523435
0.0876561
0.0247748
0.0876578
0.523439
0.905365
0.98643
0.986848
0.907274
0.552776
0.14099
0.0663646
0.140992
0.552779
0.907275
0.986848
0.986924
0.909579
0.584488
0.202382
0.120018
0.202384
0.58449
0.90958
0.986924
0.986864
0.912074
0.617262
0.269643
0.183713
0.269644
0.617264
0.912074
0.986864
0.986708
0.914672
0.650566
0.34098
0.255174
0.340981
0.650568
0.914673
0.986708
0.986335
0.917732
0.684938
0.414353
0.330818
0.414354
0.684939
0.917733
0.986335
0.986034
0.923511
0.726419
0.500214
0.423745
0.500214
0.72642
0.923511
0.986034
0.987572
0.935971
0.767199
0.559356
0.481677
0.559356
0.767199
0.935971
0.987572
0.991494
0.958944
0.824955
0.613977
0.51456
0.613977
0.824955
0.958944
0.991494
0.997089
0.988114
0.921546
0.752494
0.627011
0.752494
0.921546
0.988115
0.997089
)
;

boundaryField
{
    injectionXMinus
    {
        type            calculated;
        value           nonuniform List<scalar> 2(-0.00841441 -0.00187542);
    }
    injectionXPlus
    {
        type            calculated;
        value           nonuniform List<scalar> 2(-0.0084153 -0.00187617);
    }
    injectionYMinus
    {
        type            calculated;
        value           nonuniform List<scalar> 2(-0.00841436 -0.00187539);
    }
    injectionYPlus
    {
        type            calculated;
        value           nonuniform List<scalar> 2(-0.00841521 -0.00187616);
    }
    inletXMinus
    {
        type            calculated;
        value           nonuniform List<scalar> 
12
(
4.44089e-16
6.66134e-16
1.11022e-15
1.11022e-15
6.66134e-16
4.44089e-16
2.88658e-15
4.66294e-15
1.13243e-14
1.13243e-14
4.66294e-15
2.88658e-15
)
;
    }
    inletXPlus
    {
        type            calculated;
        value           nonuniform List<scalar> 
12
(
4.44089e-16
6.66134e-16
1.11022e-15
1.11022e-15
6.66134e-16
4.44089e-16
2.88658e-15
4.66294e-15
1.13243e-14
1.13243e-14
4.66294e-15
2.88658e-15
)
;
    }
    inletYMinus
    {
        type            calculated;
        value           nonuniform List<scalar> 
12
(
4.44089e-16
2.88658e-15
6.66134e-16
4.66294e-15
1.11022e-15
1.13243e-14
1.11022e-15
1.13243e-14
6.66134e-16
4.66294e-15
4.44089e-16
2.88658e-15
)
;
    }
    inletYPlus
    {
        type            calculated;
        value           nonuniform List<scalar> 
12
(
4.44089e-16
2.88658e-15
6.66134e-16