/*--------------------------------*- C++ -*----------------------------------*\
  =========                 |
  \\      /  F ield         | OpenFOAM: The Open Source CFD Toolbox
   \\    /   O peration     | Website:  https://openfoam.org
    \\  /    A nd           | Version:  6
     \\/     M anipulation  |
\*---------------------------------------------------------------------------*/
FoamFile
{
    version     2.0;
    format      ascii;
    class       volScalarField;
    location    "0.3";
    object      T;
}
// * * * * * * * * * * * * * * * * * * * * * * * * * * * * * * * * * * * * * //

dimensions      [0 0 0 1 0 0 0];

internalField   nonuniform List<scalar> 
3029
(
293.197
293.177
293.444
292.413
327.05
292.412
293.444
293.177
293.197
293.216
293.199
293.529
292.819
330.145
292.818
293.529
293.199
293.216
293.364
293.451
293.724
294.875
341.931
294.875
293.723
293.451
293.364
293.82
294.187
293.99
301.387
363.271
301.386
293.99
294.186
293.82
295.574
296.773
297.473
317.404
394.892
317.402
297.471
296.772
295.574
302.484
305.777
310.812
347.455
436.203
347.452
310.81
305.775
302.484
320.702
327.445
340.013
392.572
485.069
392.568
340.01
327.442
320.701
354.739
365.39
386.298
449.575
538.17
449.57
386.294
365.386
354.737
404.425
418.237
445.706
512.759
591.815
512.753
445.7
418.232
404.423
465.208
480.69
511.565
576.168
642.736
576.162
511.558
480.682
465.205
530.553
546.142
577.26
635.174
688.613
635.167
577.252
546.133
530.549
594.303
608.831
637.877
686.928
728.008
686.921
637.868
608.82
594.298
651.962
664.791
690.51
730.725
761.673
730.718
690.5
664.779
651.955
700.959
712.151
734.702
764.896
784.22
764.89
734.692
712.139
700.952
740.446
749.592
767.515
801.227
832.607
801.221
767.505
749.579
740.438
770.263
780.299
810.434
797.505
651.249
797.501
810.424
780.285
770.253
793.782
805.683
767.732
535.951
400.2
535.95
767.725
805.669
793.772
812.614
813.612
682.722
421.189
389.119
421.189
682.718
813.599
812.603
826.13
813.08
633.55
388.014
385.31
388.015
633.547
813.068
826.119
835.228
811.623
613.449
382.092
384.292
382.093
613.447
811.612
835.216
841.27
811.101
608.68
385.656
384.556
385.656
608.678
811.09
841.258
845.268
811.324
611.366
393.566
386.217
393.566
611.365
811.314
845.257
847.868
811.921
618.142
405.021
390.325
405.021
618.141
811.912
847.857
849.493
812.722
627.743
420.512
398.348
420.512
627.742
812.713
849.483
850.456
813.694
639.558
440.481
411.56
440.481
639.556
813.687
850.446
850.998
814.83
653.052
464.824
430.554
464.824
653.051
814.823
850.989
851.301
816.086
667.622
492.882
455.09
492.882
667.62
816.08
851.292
851.475
817.379
682.669
523.646
484.236
523.645
682.667
817.374
851.467
851.555
818.681
697.949
556.289
516.95
556.289
697.948
818.677
851.547
851.496
820.165
713.711
589.873
551.584
589.873
713.709
820.162
851.489
851.442
822.869
732.721
629.183
594.138
629.182
732.72
822.867
851.435
852.21
828.613
751.403
656.262
620.668
656.261
751.402
828.612
852.203
854.062
839.166
777.852
681.27
635.727
681.27
777.852
839.165
854.055
856.688
852.572
822.099
744.701
687.23
744.702
822.1
852.571
856.681
293.177
293.811
293.673
298.067
354.896
298.066
293.673
293.81
293.177
293.199
293.916
293.834
299.764
360.8
299.762
293.834
293.915
293.199
293.451
294.663
294.64
306.453
377.385
306.451
294.639
294.662
293.451
294.187
296.287
297.873
321.768
405.026
321.765
297.872
296.285
294.186
296.773
301.253
308.563
349.575
442.767
349.571
308.56
301.251
296.772
305.777
314.993
332.466
391.157
488.262
391.153
332.463
314.99
305.774
327.445
342.946
372.276
444.25
538.263
444.245
372.272
342.942
327.441
365.39
386.728
425.963
504.059
589.277
504.053
425.956
386.721
365.385
418.237
443.278
488.14
565.168
638.211
565.162
488.132
443.27
418.231
480.69
506.725
552.519
623.029
682.779
623.022
552.509
506.715
480.681
546.141
570.835
613.786
674.631
721.629
674.623
613.776
570.823
546.131
608.83
630.664
668.443
718.489
754.168
718.481
668.432
630.65
608.818
664.79
683.104
714.711
754.333
780.825
754.325
714.699
683.089
664.777
712.151
726.793
752.488
782.829
800.451
782.821
752.476
726.777
712.136
749.592
761.452
780.959
803.5
822.365
803.492
780.946
761.435
749.576
780.298
787.596
806.869
832.085
813.08
832.078
806.857
787.579
780.282
805.682
809.086
816.365
736.32
577.868
736.316
816.354
809.069
805.665
813.611
824.093
798.111
617.849
455.254
617.847
798.102
824.077
813.595
813.079
831.974
778.551
559.247
420.257
559.247
778.544
831.958
813.064
811.622
835.289
766.238
537.861
415.08
537.861
766.231
835.274
811.608
811.1
836.174
759.799
534.003
420.248
534.003
759.793
836.16
811.087
811.323
835.779
756.808
538.359
430.111
538.358
756.802
835.766
811.31
811.921
834.726
755.917
547.464
443.592
547.464
755.911
834.714
811.909
812.722
833.411
756.58
560.324
461.024
560.324
756.575
833.4
812.711
813.695
832.117
758.624
576.588
482.771
576.588
758.619
832.107
813.685
814.831
831.019
761.93
595.999
508.887
595.999
761.926
831.011
814.822
816.086
830.177
766.357
618.386
539.351
618.385
766.353
830.17
816.079
817.379
829.502
771.767
643.909
574.491
643.908
771.764
829.496
817.373
818.682
828.854
778.522
673.926
616.092
673.925
778.519
828.85
818.677
820.166
827.637
786.207
709.66
665.803
709.66
786.205
827.634
820.162
822.87
828.018
807.224
768.259
744.538
768.258
807.223
828.016
822.868
828.614
829.889
814.093
786.361
768.927
786.36
814.092
829.889
828.613
839.167
837.881
810.492
755.838
726.41
755.838
810.492
837.881
839.165
852.573
853.154
831.409
760.662
705.652
760.663
831.41
853.153
852.572
293.444
293.673
294.721
333.964
438.016
333.962
294.72
293.672
293.444
293.529
293.834
295.904
340.576
448.365
340.573
295.903
293.833
293.529
293.724
294.64
301.277
358.828
471.5
358.825
301.275
294.639
293.723
293.99
297.873
315.204
390.298
505.295
390.294
315.201
297.871
293.989
297.472
308.562
342.225
434.04
546.146
434.035
342.221
308.559
297.471
310.811
332.466
383.833
486.524
590.211
486.519
383.828
332.462
310.808
340.013
372.276
437.581
542.959
634.152
542.953
437.574
372.27
340.009
386.297
425.962
498.373
598.75
675.457
598.743
498.364
425.954
386.292
445.705
488.138
560.542
650.412
712.505
650.404
560.533
488.129
445.698
511.563
552.517
619.38
695.826
744.463
695.818
619.369
552.506
511.555
577.258
613.784
671.779
734.089
771.12
734.081
671.768
613.772
577.248
637.875
668.441
716.213
765.192
792.694
765.185
716.202
668.427
637.863
690.507
714.709
752.365
789.64
809.589
789.632
752.353
714.694
690.494
734.7
752.486
780.766
808.472
822.806
808.465
780.754
752.471
734.686
767.513
780.956
802.102
821.369
830.102
821.362
802.09
780.941
767.498
810.431
806.867
817.698
834.289
848.353
834.282
817.686
806.851
810.416
767.73
816.362
829.502
836.613
807.779
836.607
829.49
816.348
767.718
682.721
798.109
835.773
815.477
731.155
815.472
835.762
798.095
682.712
633.549
778.55
837.233
794.712
687.156
794.708
837.222
778.538
633.542
613.448
766.237
836.079
781.652
669.51
781.649
836.069
766.226
613.442
608.679
759.798
833.697
774.638
665.703
774.635
833.688
759.788
608.673
611.367
756.808
830.802
771.244
668.672
771.241
830.793
756.798
611.361
618.143
755.917
827.819
770.154
675.402
770.152
827.811
755.908
618.137
627.744
756.581
825.086
770.747
684.684
770.745
825.078
756.573
627.739
639.56
758.626
822.863
772.87
696.07
772.867
822.856
758.618
639.554
653.055
761.932
821.317
776.547
709.48
776.544
821.311
761.926
653.05
667.625
766.359
820.524
781.929
725.156
781.927
820.519
766.353
667.62
682.672
771.77
820.515
789.455
743.918
789.453
820.51
771.765
682.668
697.953
778.526
821.581
800.28
767.686
800.278
821.577
778.522
697.95
713.715
786.211
824.542
817.687
800.791
817.686
824.539
786.208
713.712
732.726
807.227
848.722
852.652
852.813
852.652
848.723
807.226
732.724
751.407
814.096
814.097
751.407
777.856
810.495
823.462
793.247
761.528
793.248
823.464
810.497
777.856
822.102
831.411
832.844
787.861
739.58
787.862
832.845
831.413
822.104
836.564
792.285
741.389
792.286
836.564
838.014
796.618
747.495
796.619
838.015
838.857
800.162
753.778
800.163
838.857
839.499
803.255
759.755
803.257
839.499
840.093
806.116
765.419
806.118
840.094
840.678
808.831
770.808
808.833
840.679
841.265
811.432
775.943
811.434
841.265
841.854
813.93
780.837
813.932
841.855
842.442
816.322
785.488
816.325
842.443
843.045
818.656
789.979
818.658
843.046
843.574
820.684
793.869
820.687
843.575
844.547
823.908
799.884
823.911
844.548
292.413
298.067
333.963
458.962
602.127
458.958
333.961
298.066
292.412
292.819
299.763
340.575
471.017
612.413
471.011
340.572
299.762
292.818
294.875
306.452
358.827
497.18
632.33
497.174
358.823
306.45
294.874
301.387
321.767
390.297
534.404
658.414
534.398
390.291
321.764
301.385
317.403
349.573
434.039
577.905
686.985
577.899
434.032
349.569
317.4
347.454
391.155
486.522
622.985
715.249
622.978
486.514
391.15
347.45
392.57
444.247
542.957
666.057
741.466
666.05
542.948
444.241
392.566
449.573
504.056
598.747
704.887
764.728
704.88
598.737
504.047
449.567
512.756
565.165
650.409
738.396
784.69
738.389
650.398
565.155
512.749
576.165
623.025
695.823
766.326
801.353
766.319
695.811
623.013
576.157
635.17
674.626
734.085
788.936
814.925
788.929
734.074
674.614
635.16
686.923
718.484
765.189
806.768
825.727
806.761
765.178
718.471
686.912
730.721
754.328
789.637
820.471
834.102
820.465
789.625
754.315
730.709
764.892
782.823
808.469
830.74
840.511
830.734
808.458
782.81
764.879
801.222
803.495
821.366
838.138
844.846
838.132
821.355
803.481
801.209
797.501
832.08
834.286
842.923
848.642
842.917
834.275
832.066
797.49
535.949
736.317
836.61
848.627
853.811
848.622
836.599
736.307
535.946
421.189
617.847
815.474
853.215
852.274
853.209
815.464
617.841
421.189
388.015
559.247
794.71
854.63
847.747
854.624
794.701
559.242
388.015
382.093
537.861
781.651
853.804
843.701
853.799
781.642
537.856
382.093
385.656
534.003
774.638
851.873
840.76
851.868
774.629
533.999
385.656
393.566
538.359
771.244
849.49
838.651
849.485
771.236
538.355
393.565
405.022
547.465
770.155
847.016
837.134
847.012
770.148
547.461
405.021
420.513
560.326
770.748
844.717
836.12
844.713
770.742
560.322
420.511
440.482
576.591
772.872
842.795
835.635
842.791
772.865
576.587
440.481
464.826
596.003
776.549
841.425
835.774
841.422
776.543
595.999
464.824
492.885
618.39
781.932
840.789
836.693
840.786
781.927
618.386
492.883
523.649
643.914
789.458
841.134
838.652
841.131
789.454
643.911
523.647
556.293
673.932
800.283
842.9
842.082
842.898
800.28
673.929
556.291
589.878
709.667
817.691
847.17
847.628
847.169
817.689
709.665
589.876
629.188
768.264
852.653
852.939
853.6
852.94
852.654
768.264
629.187
656.267
786.366
786.367
656.267
681.276
755.844
793.252
808.136
792.553
808.138
793.254
755.846
681.276
744.707
760.668
787.866
804.069
785.092
804.071
787.868
760.67
744.709
792.289
803.784
784.37
803.786
792.291
796.622
805.363
786.767
805.363
796.623
800.166
807.464
789.993
807.463
800.166
803.26
809.667
793.368
809.666
803.26
806.12
811.86
796.691
811.859
806.12
808.835
814.009
799.911
814.009
808.835
811.436
816.105
803.014
816.105
811.436
813.933
818.143
805.997
818.144
813.934
816.326
820.117
808.854
820.118
816.326
818.659
822.063
811.638
822.065
818.66
820.687
823.761
814.054
823.762
820.688
823.912
826.534
817.902
826.536
823.912
327.05
354.894
438.013
602.123
730.996
602.117
438.009
354.893
327.05
330.144
360.798
448.361
612.409
736.463
612.403
448.357
360.796
330.144
341.929
377.382
471.496
632.326
746.415
632.32
471.491
377.38
341.928
363.269
405.023
505.29
658.409
758.917
658.404
505.285
405.019
363.266
394.889
442.762
546.14
686.98
772.287
686.975
546.134
442.758
394.886
436.2
488.257
590.205
715.244
785.414
715.239
590.199
488.252
436.196
485.065
538.257
634.145
741.461
797.676
741.456
634.139
538.251
485.06
538.165
589.27
675.45
764.724
808.749
764.718
675.442
589.263
538.159
591.809
638.204
712.498
784.686
818.486
784.68
712.489
638.196
591.803
642.73
682.771
744.457
801.35
826.839
801.343
744.447
682.762
642.723
688.607
721.621
771.113
814.922
833.838
814.915
771.104
721.612
688.599
728.001
754.16
792.688
825.724
839.565
825.717
792.678
754.15
727.992
761.666
780.818
809.584
834.099
844.14
834.092
809.573
780.807
761.657
784.213
800.444
822.801
840.509
847.699
840.502
822.79
800.433
784.204
832.6
822.358
830.098
844.844
850.43
844.837
830.088
822.347
832.59
651.246
813.074
848.348
848.64
852.066
848.634
848.338
813.064
651.24
400.2
577.866
807.775
853.809
854.388
853.803
807.766
577.861
400.2
389.119
455.253
731.152
852.273
857.706
852.267
731.145
455.251
389.119
385.31
420.257
687.155
847.745
860.052
847.74
687.148
420.256
385.31
384.293
415.08
669.509
843.7
860.919
843.695
669.502
415.079
384.293
384.556
420.248
665.702
840.76
860.668
840.754
665.696
420.247
384.556
386.218
430.112
668.672
838.651
859.734
838.646
668.666
430.11
386.217
390.326
443.593
675.402
837.134
858.422
837.13
675.397
443.591
390.325
398.349
461.025
684.685
836.121
856.993
836.116
684.68
461.023
398.348
411.561
482.773
696.073
835.636
855.605
835.632
696.067
482.771
411.561
430.556
508.89
709.483
835.775
854.359
835.772
709.478
508.887
430.555
455.091
539.355
725.16
836.695
853.339
836.692
725.156
539.352
455.091
484.239
574.496
743.923
838.654
852.615
838.651
743.919
574.494
484.238
516.953
616.098
767.691
842.084
852.283
842.082
767.688
616.096
516.952
551.588
665.81
800.796
847.631
852.595
847.63
800.794
665.808
551.587
594.143
744.544
852.816
853.601
854.36
853.602
852.817
744.544
594.142
620.674
768.933
768.935
620.673
635.734
726.417
761.535
792.56
808.79
792.562
761.537
726.418
635.733
687.237
705.659
739.587
785.099
807.224
785.1
739.588
705.66
687.238
741.396
784.376
807.184
784.374
741.397
747.503
786.774
808.366
786.766
747.502
753.785
790
810.051
789.991
753.783
759.763
793.374
811.91
793.366
759.761
765.427
796.698
813.81
796.689
765.424
770.815
799.917
815.701
799.909
770.813
775.95
803.02
817.566
803.012
775.948
780.844
806.003
819.396
805.995
780.842
785.495
808.86
821.182
808.852
785.492
789.986
811.644
822.96
811.637
789.984
793.876
814.059
824.512
814.052
793.874
799.89
817.908
827.12
817.901
799.888
292.412
298.065
333.959
458.953
602.115
458.951
333.958
298.065
292.412
292.818
299.761
340.571
471.006
612.4
471.004
340.569
299.76
292.818
294.874
306.45
358.821
497.169
632.317
497.165
358.82
306.449
294.873
301.385
321.763
390.29
534.392
658.401
534.389
390.287
321.761
301.384
317.4
349.568
434.03
577.893
686.972
577.89
434.027
349.566
317.399
347.449
391.148
486.512
622.972
715.236
622.969
486.509
391.145
347.448
392.564
444.239
542.946
666.044
741.453
666.04
542.942
444.235
392.562
449.566
504.046
598.735
704.874
764.715
704.869
598.73
504.042
449.563
512.747
565.154
650.397
738.383
784.677
738.378
650.391
565.149
512.744
576.156
623.013
695.811
766.314
801.341
766.307
695.804
623.007
576.152
635.16
674.615
734.074
788.925
814.913
788.917
734.066
674.608
635.156
686.913
718.473
765.178
806.757
825.715
806.749
765.17
718.466
686.908
730.711
754.317
789.626
820.461
834.091
820.453
789.618
754.31
730.705
764.883
782.813
808.459
830.73
840.501
830.723
808.45
782.805
764.876
801.214
803.485
821.357
838.129
844.837
838.122
821.348
803.477
801.207
797.496
832.072
834.278
842.914
848.633
842.908
834.27
832.064
797.489
535.948
736.312
836.603
848.62
853.803
848.614
836.595
736.305
535.946
421.189
617.845
815.468
853.208
852.266
853.202
815.461
617.84
421.189
388.015
559.245
794.705
854.623
847.74
854.618
794.698
559.242
388.015
382.093
537.86
781.647
853.798
843.695
853.794
781.64
537.856
382.093
385.657
534.002
774.634
851.868
840.755
851.864
774.627
533.999
385.656
393.566
538.358
771.24
849.485
838.647
849.482
771.234
538.355
393.566
405.022
547.464
770.152
847.012
837.13
847.009
770.146
547.461
405.021
420.512
560.325
770.746
844.714
836.118
844.711
770.74
560.321
420.511
440.482
576.59
772.869
842.793
835.633
842.79
772.864
576.586
440.48
464.825
596.001
776.547
841.424
835.774
841.421
776.542
595.998
464.824
492.884
618.389
781.931
840.788
836.694
840.786
781.926
618.386
492.883
523.648
643.913
789.457
841.134
838.653
841.133
789.454
643.91
523.647
556.292
673.931
800.283
842.902
842.084
842.901
800.281
673.928
556.291
589.877
709.667
817.692
847.173
847.632
847.172
817.69
709.665
589.876
629.188
768.265
852.656
852.943
853.603
852.943
852.657
768.265
629.187
656.267
786.368
786.369
656.267
681.276
755.846
793.257
808.146
792.567
808.148
793.258
755.847
681.276
744.711
760.672
787.871
804.079
785.104
804.08
787.872
760.672
744.711
792.295
803.794
784.378
803.792
792.295
796.628
805.371
786.771
805.366
796.627
800.172
807.471
789.996
807.465
800.171
803.266
809.674
793.37
809.669
803.264
806.127
811.867
796.693
811.862
806.125
808.842
814.017
799.913
814.011
808.84
811.443
816.113
803.016
816.107
811.441
813.941
818.152
805.999
818.147
813.939
816.334
820.125
808.856
820.12
816.331
818.667
822.072
811.641
822.067
818.665
820.695
823.77
814.056
823.765
820.693
823.92
826.543
817.905
826.538
823.917
293.444
293.672
294.719
333.959
438.007
333.958
294.719
293.672
293.444
293.529
293.833
295.902
340.57
448.356
340.569
295.902
293.833
293.529
293.723
294.638
301.274
358.821
471.49
358.82
301.274
294.638
293.723
293.989
297.871
315.2
390.289
505.283
390.287
315.199
297.87
293.989
297.47
308.558
342.218
434.029
546.132
434.027
342.217
308.558
297.47
310.808
332.46
383.825
486.51
590.196
486.509
383.823
332.459
310.807
340.008
372.268
437.57
542.943
634.136
542.941
437.568
372.266
340.007
386.291
425.952
498.36
598.732
675.44
598.73
498.357
425.95
386.289
445.696
488.127
560.527
650.393
712.487
650.39
560.524
488.124
445.694
511.553
552.503
619.363
695.807
744.445
695.804
619.36
552.5
511.55
577.246
613.769
671.762
734.07
771.102
734.066
671.757
613.765
577.243
637.862
668.425
716.196
765.174
792.677
765.169
716.191
668.42
637.858
690.494
714.692
752.348
789.622
809.572
789.617
752.343
714.687
690.489
734.686
752.47
780.75
808.455
822.79
808.45
780.744
752.464
734.681
767.499
780.94
802.086
821.353
830.087
821.348
802.081
780.935
767.494
810.418
806.852
817.683
834.274
848.338
834.27
817.677
806.846
810.413
767.721
816.35
829.488
836.598
807.766
836.595
829.482
816.343
767.716
682.715
798.098
835.76
815.464
731.145
815.461
835.755
798.092
682.711
633.545
778.541
837.221
794.701
687.149
794.699
837.216
778.535
633.542
613.445
766.23
836.068
781.643
669.503
781.641
836.063
766.224
613.442
608.677
759.792
833.687
774.63
665.697
774.628
833.683
759.786
608.673
611.364
756.802
830.793
771.237
668.668
771.235
830.789
756.796
611.361
618.14
755.912
827.812
770.149
675.398
770.148
827.808
755.907
618.137
627.742
756.577
825.08
770.743
684.682
770.742
825.076
756.572
627.739
639.557
758.622
822.859
772.867
696.07
772.866
822.855
758.617
639.554
653.052
761.929
821.314
776.546
709.481
776.545
821.311
761.925
653.049
667.623
766.357
820.523
781.93
725.159
781.929
820.52
766.354
667.62
682.67
771.77
820.515
789.458
743.922
789.457
820.513
771.766
682.668
697.952
778.526
821.583
800.284
767.692
800.283
821.581
778.524
697.95
713.715
786.213
824.546
817.693
800.798
817.693
824.545
786.211
713.713
732.727
807.231
848.728
852.658
852.82
852.659
848.729
807.231
732.726
751.409
814.101
814.103
751.409
777.861
810.502
823.473
793.26
761.541
793.261
823.474
810.503
777.86
822.111
831.42
832.855
787.874
739.592
787.875
832.855
831.421
822.111
836.574
792.298
741.401
792.298
836.575
838.025
796.63
747.506
796.63
838.026
838.867
800.173
753.787
800.173
838.868
839.509
803.267
759.764
803.267
839.51
840.104
806.127
765.428
806.127
840.104
840.689
808.842
770.817
808.842
840.689
841.275
811.443
775.951
811.443
841.275
841.864
813.94
780.846
813.94
841.864
842.453
816.333
785.496
816.333
842.453
843.055
818.666
789.987
818.666
843.055
843.584
820.694
793.877
820.694
843.584
844.557
823.919
799.892
823.919
844.557
293.177
293.81
293.672
298.065
354.892
298.065
293.672
293.81
293.177
293.199
293.915
293.833
299.761
360.795
299.761
293.833
293.914
293.198
293.451
294.661
294.638
306.449
377.379
306.449
294.638
294.661
293.451
294.186
296.284
297.87
321.763
405.019
321.762
297.87
296.284
294.185
296.771
301.249
308.558
349.567
442.757
349.566
308.557
301.249
296.771
305.773
314.988
332.46
391.148
488.251
391.146
332.459
314.987
305.773
327.44
342.94
372.268
444.238
538.25
444.235
372.266
342.938
327.439
365.384
386.718
425.951
504.044
589.262
504.042
425.95
386.716
365.383
418.229
443.267
488.126
565.152
638.195
565.149
488.124
443.264
418.227
480.679
506.711
552.502
623.01
682.761
623.007
552.5
506.708
480.677
546.128
570.819
613.768
674.611
721.611
674.608
613.765
570.815
546.126
608.816
630.646
668.423
718.469
754.149
718.466
668.421
630.642
608.812
664.774
683.084
714.69
754.312
780.806
754.31
714.687
683.08
664.771
712.134
726.773
752.468
782.808
800.433
782.806
752.464
726.769
712.13
749.574
761.431
780.938
803.48
822.347
803.477
780.935
761.427
749.57
780.281
787.576
806.849
832.066
813.064
832.064
806.846
787.571
780.277
805.666
809.067
816.347
736.307
577.862
736.306
816.344
809.062
805.661
813.596
824.075
798.095
617.841
455.252
617.841
798.093
824.071
813.591
813.066
831.957
778.538
559.242
420.256
559.242
778.536
831.952
813.061
811.611
835.274
766.226
537.857
415.079
537.857
766.225
835.269
811.606
811.09
836.16
759.789
533.999
420.247
534
759.787
836.156
811.085
811.314
835.767
756.799
538.355
430.111
538.356
756.798
835.763
811.309
811.912
834.716
755.909
547.462
443.592
547.462
755.908
834.712
811.908
812.715
833.403
756.575
560.323
461.024
560.323
756.574
833.399
812.711
813.689
832.111
758.62
576.588
482.772
576.589
758.619
832.108
813.685
814.827
831.016
761.928
596
508.889
596.001
761.927
831.012
814.823
816.084
830.175
766.357
618.388
539.354
618.389
766.356
830.173
816.081
817.379
829.503
771.77
643.913
574.496
643.913
771.769
829.501
817.376
818.683
828.858
778.527
673.932
616.099
673.932
778.526
828.856
818.681
820.169
827.643
786.214
709.669
665.812
709.669
786.214
827.642
820.168
822.875
828.025
807.233
768.268
744.548
768.269
807.233
828.026
822.874
828.621
829.899
814.104
786.372
768.939
786.372
814.104
829.899
828.621
839.175
837.892
810.504
755.85
726.421
755.85
810.504
837.892
839.174
852.581
853.164
831.422
760.675
705.663
760.675
831.422
853.165
852.584
293.197
293.177
293.444
292.412
327.049
292.412
293.444
293.177
293.197
293.216
293.199
293.529
292.818
330.143
292.818
293.529
293.198
293.216
293.364
293.451
293.723
294.874
341.928
294.873
293.723
293.451
293.364
293.82
294.186
293.989
301.384
363.266
301.384
293.988
294.185
293.82
295.573
296.771
297.47
317.4
394.886
317.399
297.47
296.771
295.572
302.483
305.773
310.808
347.449
436.195
347.448
310.807
305.773
302.482
320.7
327.44
340.008
392.564
485.059
392.562
340.007
327.439
320.698
354.736
365.384
386.29
449.565
538.159
449.564
386.289
365.383
354.734
404.421
418.229
445.696
512.747
591.802
512.745
445.694
418.227
404.418
465.202
480.679
511.552
576.154
642.722
576.152
511.55
480.677
465.199
530.546
546.128
577.245
635.158
688.598
635.156
577.243
546.126
530.542
594.295
608.815
637.86
686.91
727.991
686.908
637.858
608.812
594.291
651.952
664.774
690.492
730.707
761.657
730.705
690.49
664.771
651.948
700.949
712.133
734.684
764.878
784.204
764.877
734.682
712.13
700.944
740.435
749.573
767.497
801.209
832.59
801.207
767.494
749.57
740.43
770.251
780.28
810.415
797.49
651.241
797.489
810.413
780.277
770.245
793.77
805.664
767.718
535.946
400.2
535.946
767.716
805.661
793.765
812.602
813.594
682.712
421.189
389.119
421.189
682.711
813.591
812.597
826.118
813.064
633.542
388.015
385.31
388.015
633.542
813.062
826.113
835.216
811.609
613.442
382.093
384.293
382.093
613.443
811.606
835.211
841.258
811.088
608.674
385.656
384.556
385.657
608.674
811.085
841.254
845.258
811.312
611.361
393.566
386.218
393.566
611.362
811.31
845.254
847.859
811.91
618.138
405.021
390.326
405.022
618.138
811.908
847.855
849.485
812.713
627.74
420.512
398.348
420.512
627.74
812.711
849.481
850.449
813.688
639.555
440.481
411.561
440.481
639.556
813.686
850.446
850.992
814.826
653.051
464.825
430.555
464.825
653.051
814.824
850.989
851.296
816.083
667.622
492.884
455.091
492.884
667.622
816.082
851.294
851.472
817.378
682.67
523.648
484.239
523.648
682.67
817.377
851.47
851.553
818.683
697.953
556.293
516.953
556.293
697.953
818.682
851.552
851.496
820.169
713.715
589.878
551.589
589.878
713.716
820.169
851.495
851.442
822.875
732.728
629.189
594.145
629.19
732.728
822.875
851.442
852.211
828.621
751.411
656.27
620.676
656.27
751.412
828.622
852.211
854.064
839.174
777.862
681.279
635.736
681.279
777.862
839.175
854.064
856.691
852.581
822.112
744.714
687.241
744.713
822.112
852.584
856.697
)
;

boundaryField
{
    injectionXMinus
    {
        type            uniformFixedValue;
        uniformValue    uniform 400;
        value           uniform 400;
    }
    injectionXPlus
    {
        type            uniformFixedValue;
        uniformValue    uniform 400;
        value           uniform 400;
    }
    injectionYMinus
    {
        type            uniformFixedValue;
        uniformValue    uniform 400;
        value           uniform 400;
    }
    injectionYPlus
    {
        type            uniformFixedValue;
        uniformValue    uniform 400;
        value           uniform 400;
    }
    inletXMinus
    {
        type            uniformFixedValue;
        uniformValue    uniform 293.15;
        value           uniform 293.15;
    }
    inletXPlus
    {
        type            uniformFixedValue;
        uniformValue    uniform 293.15;
        value           uniform 293.15;
    }
    inletYMinus
    {
        type            uniformFixedValue;
        uniformValue    uniform 293.15;
        value           uniform 293.15;
    }
    inletYPlus
    {
        type            uniformFixedValue;
        uniformValue    uniform 293.15;
        value           uniform 293.15;
    }
    outlet
    {
        type            zeroGradient;
    }
    valve
    {
        type            zeroGradient;
    }
    walls
    {
        type            zeroGradient;
    }
}


// ************************************************************************* //
