/*--------------------------------*- C++ -*----------------------------------*\
  =========                 |
  \\      /  F ield         | OpenFOAM: The Open Source CFD Toolbox
   \\    /   O peration     | Website:  https://openfoam.org
    \\  /    A nd           | Version:  6
     \\/     M anipulation  |
\*---------------------------------------------------------------------------*/
FoamFile
{
    version     2.0;
    format      ascii;
    class       volScalarField;
    location    "0.6";
    object      T;
}
// * * * * * * * * * * * * * * * * * * * * * * * * * * * * * * * * * * * * * //

dimensions      [0 0 0 1 0 0 0];

internalField   nonuniform List<scalar> 
3029
(
278.133
272.085
303.591
248.071
310.432
248.07
303.591
272.084
278.133
314.126
319.007
340.676
273.083
333.163
273.083
340.676
319.007
314.126
255.933
262.294
294.575
267.845
318.642
267.845
294.575
262.294
255.933
258.564
254.996
289.363
268.632
306.617
268.632
289.363
254.995
258.564
267.523
258.334
288.539
271.149
300.882
271.148
288.538
258.333
267.522
273.373
262.41
288.052
273.824
299.711
273.823
288.05
262.409
273.372
276.297
265.506
287.726
276.774
301.936
276.773
287.724
265.504
276.295
277.644
267.863
287.816
280.658
307.278
280.657
287.813
267.86
277.642
278.539
270.145
288.857
286.434
316.015
286.432
288.853
270.141
278.537
280.016
273.266
291.778
295.246
328.592
295.244
291.773
273.262
280.013
283.29
278.46
297.894
308.52
346.162
308.517
297.889
278.456
283.286
289.777
287.209
308.643
326.999
367.35
326.995
308.637
287.203
289.772
300.884
300.856
325.427
354.935
406.428
354.93
325.42
300.849
300.878
317.544
320.288
348.776
382.077
413.668
382.071
348.768
320.28
317.538
340.521
345.131
376.491
461.545
758.285
461.536
376.482
345.123
340.514
369.701
374.044
403.023
420.798
457.029
420.791
403.013
374.035
369.692
413.909
428.095
421.671
300.892
483.094
300.889
421.662
428.083
413.899
467.919
482.408
403.504
238.382
474.524
238.381
403.495
482.394
467.907
513.332
512.932
376.243
208.715
390.544
208.714
376.236
512.918
513.319
549.989
534.285
367.203
210.467
410.865
210.466
367.197
534.271
549.974
581.826
554.118
370.925
220.544
425.634
220.543
370.92
554.105
581.81
611.261
574.073
380.611
231.787
430.462
231.786
380.606
574.06
611.245
639.093
593.815
392.531
242.878
430.877
242.877
392.527
593.801
639.075
665.3
612.67
404.94
253.854
430.022
253.852
404.935
612.656
665.281
689.547
629.993
416.971
264.889
429.198
264.886
416.966
629.979
689.529
711.394
645.135
427.981
276.058
428.861
276.056
427.976
645.121
711.376
730.423
657.433
437.617
287.697
429.59
287.695
437.613
657.418
730.405
746.443
665.946
444.307
298.93
430.521
298.928
444.303
665.932
746.425
760.527
671.234
452.328
315.075
438.694
315.073
452.324
671.221
760.51
775.978
673.769
448.562
318.283
433.078
318.281
448.558
673.756
775.961
805.618
695.572
490.753
386.957
516.661
386.955
490.748
695.56
805.602
849.593
745.072
578.642
470.381
608.835
470.378
578.637
745.061
849.576
893.197
801.875
554.839
408.245
500.399
408.243
554.834
801.864
893.181
982.52
950.808
500.214
177.189
155.906
177.188
500.209
950.796
982.505
272.084
257.021
315.916
261.21
266.708
261.21
315.915
257.02
272.084
319.007
349.281
411.331
302.826
282.134
302.826
411.329
349.281
319.007
262.294
289.085
355.579
304.051
285.552
304.05
355.578
289.084
262.293
254.996
263.805
322.296
299.471
286.621
299.471
322.294
263.804
254.995
258.334
258.551
307.877
296.712
289.104
296.711
307.875
258.549
258.332
262.41
259.907
302.196
296.34
293.923
296.339
302.193
259.905
262.408
265.506
262.852
300.302
298.223
301.429
298.222
300.299
262.849
265.503
267.863
266.123
300.519
302.648
311.993
302.646
300.515
266.119
267.859
270.144
269.867
302.778
310.282
326.053
310.279
302.773
269.862
270.14
273.266
274.894
307.818
321.941
343.986
321.937
307.813
274.889
273.261
278.46
282.422
316.739
338.419
366.253
338.415
316.732
282.416
278.455
287.209
293.859
330.571
360.066
392.373
360.061
330.563
293.852
287.202
300.855
310.316
349.902
387.66
425.929
387.654
349.894
310.308
300.848
320.287
332.065
374.023
417.045
452.721
417.038
374.012
332.055
320.279
345.131
357.882
399.596
453.739
541.886
453.73
399.584
357.871
345.121
374.044
385.68
420.299
440.478
444.392
440.47
420.287
385.668
374.033
428.094
421.279
425.993
406.052
784.518
406.045
425.981
421.265
428.081
482.407
453.628
416.632
393.799
1012.25
393.794
416.622
453.613
482.391
512.931
475.223
411.042
382.685
886.401
382.68
411.033
475.208
512.914
534.283
493.83
416.121
386.415
823.076
386.409
416.112
493.815
534.267
554.117
512.928
428.29
397.458
792.901
397.452
428.281
512.912
554.1
574.072
532.638
443.591
410.716
774.22
410.71
443.581
532.622
574.055
593.814
552.177
459.7
424.306
759.91
424.3
459.691
552.162
593.797
612.669
570.785
475.483
437.793
748.065
437.787
475.474
570.77
612.652
629.993
587.854
490.436
451.31
738.344
451.304
490.427
587.839
629.975
645.135
602.714
504.206
465.378
731.075
465.372
504.197
602.699
645.118
657.433
614.824
517.117
480.918
727.149
480.912
517.108
614.81
657.416
665.947
621.481
526.259
499.372
727.325
499.367
526.251
621.468
665.93
671.235
625.255
544.146
522.305
733.057
522.3
544.138
625.243
671.219
673.771
598.267
489.498
525.41
702.349
525.405
489.491
598.256
673.756
695.574
605.699
738.898
671.519
838.722
671.515
738.89
605.689
695.56
745.074
635.941
826.207
749.434
912.362
749.43
826.2
635.932
745.061
801.877
731.071
828.359
783.945
931.671
783.941
828.351
731.062
801.864
950.809
1074.67
1027.73
766.346
718.636
766.341
1027.72
1074.66
950.798
303.591
315.916
347.754
305.741
277.684
305.74
347.753
315.915
303.591
340.676
411.33
440.455
345.793
289.193
345.792
440.453
411.329
340.676
294.575
355.579
418.243
353.076
296.769
353.075
418.24
355.577
294.574
289.363
322.295
387.337
349.132
303.451
349.13
387.334
322.293
289.362
288.539
307.877
366.933
345.273
311.973
345.271
366.929
307.875
288.537
288.052
302.195
355.306
344.753
323.472
344.751
355.301
302.192
288.049
287.726
300.302
349.45
348.352
338.324
348.349
349.445
300.298
287.722
287.816
300.518
347.976
356.361
356.624
356.358
347.97
300.513
287.811
288.857
302.777
350.705
368.969
378.32
368.965
350.698
302.772
288.852
291.777
307.818
358.011
386.218
403.208
386.213
358.004
307.811
291.771
297.893
316.738
370.345
407.91
430.943
407.905
370.336
316.731
297.887
308.642
330.57
387.854
433.459
460.829
433.452
387.844
330.561
308.634
325.426
349.901
410.023
461.831
492.465
461.823
410.012
349.891
325.417
348.775
374.021
434.938
490.332
522.019
490.323
434.925
374.01
348.765
376.49
399.594
458.798
515.965
557.481
515.956
458.785
399.581
376.478
403.021
420.297
475.845
524.637
536.628
524.627
475.831
420.283
403.009
421.669
425.991
491.17
533.755
720.011
533.746
491.155
425.976
421.655
403.501
416.63
502.003
551.634
1019.05
551.624
501.988
416.617
403.489
376.24
411.04
508.222
562.291
1081.14
562.28
508.207
411.027
376.23
367.201
416.12
517.152
575.65
1077.42
575.639
517.138
416.107
367.192
370.923
428.289
529.558
592.489
1062.53
592.477
529.544
428.275
370.914
380.61
443.589
543.867
610.83
1047.73
610.818
543.854
443.576
380.601
392.531
459.699
558.649
629.191
1034.52
629.179
558.636
459.687
392.521
404.94
475.482
573.134
646.894
1022.6
646.882
573.121
475.47
404.93
416.971
490.436
587.009
663.979
1011.79
663.968
586.996
490.423
416.961
427.982
504.207
600.592
681.513
1002.68
681.502
600.578
504.195
427.973
437.619
517.118
613.907
700.329
995.508
700.318
613.895
517.107
437.61
444.309
526.26
633.666
731.327
998.932
731.318
633.654
526.25
444.301
452.331
544.148
655.897
761.176
1000.41
761.168
655.886
544.138
452.323
448.565
489.5
814.522
1006.15
1193.41
1006.14
814.508
489.491
448.558
490.757
738.901
1751.45
1173.68
1359
1173.67
1751.44
738.892
490.749
578.647
826.21
826.202
578.639
554.844
828.361
545.852
536.42
684.248
536.417
545.847
828.353
554.837
500.218
1027.74
818.78
719.06
734.937
719.055
818.772
1027.73
500.212
743.882
658.983
657.1
658.979
743.876
750.098
653.332
645.796
653.327
750.092
760.108
656.37
645.476
656.365
760.102
765.92
660.157
647.251
660.153
765.914
768.942
663.585
649.5
663.58
768.936
770.725
666.771
651.942
666.767
770.719
772.022
669.853
654.493
669.849
772.016
773.148
672.917
657.145
672.913
773.142
774.202
675.955
659.843
675.951
774.196
775.289
679.151
662.767
679.147
775.283
776.197
681.775
665.144
681.772
776.191
777.9
686.842
669.998
686.839
777.895
248.071
261.209
305.74
324.019
340.764
324.017
305.739
261.208
248.07
273.083
302.825
345.791
343.22
348.212
343.218
345.79
302.824
273.082
267.845
304.05
353.074
352.953
356.261
352.951
353.072
304.048
267.844
268.632
299.47
349.13
358.358
366.385
358.355
349.126
299.467
268.631
271.148
296.71
345.271
364.819
379.861
364.816
345.267
296.707
271.146
273.823
296.338
344.75
374.689
396.919
374.685
344.746
296.334
273.821
276.773
298.221
348.349
388.639
417.226
388.634
348.343
298.217
276.77
280.656
302.645
356.358
406.623
440.261
406.618
356.352
302.64
280.652
286.432
310.279
368.966
428.268
465.457
428.262
368.958
310.273
286.427
295.243
321.937
386.215
453.003
492.229
452.996
386.206
321.93
295.238
308.517
338.415
407.907
480.102
519.963
480.094
407.897
338.407
308.511
326.996
360.062
433.455
508.643
547.934
508.634
433.443
360.053
326.988
354.932
387.656
461.827
537.437
575.339
537.427
461.815
387.645
354.923
382.073
417.04
490.328
564.664
600.882
564.655
490.315
417.028
382.064
461.54
453.733
515.962
588.632
625.447
588.623
515.947
453.72
461.527
420.794
440.473
524.633
606.986
644.7
606.976
524.618
440.46
420.781
300.89
406.048
533.751
632.768
694.995
632.757
533.736
406.038
300.885
238.382
393.797
551.63
662.531
790.556
662.519
551.616
393.79
238.381
208.714
382.683
562.287
682.429
851.023
682.417
562.274
382.677
208.714
210.467
386.413
575.646
698.854
882.59
698.842
575.632
386.406
210.467
220.543
397.456
592.485
715.324
900.695
715.313
592.471
397.449
220.543
231.787
410.714
610.826
732.188
913.385
732.176
610.813
410.707
231.786
242.878
424.304
629.187
748.897
923.73
748.885
629.174
424.297
242.877
253.854
437.791
646.89
765.342
932.882
765.33
646.878
437.784
253.853
264.888
451.308
663.976
781.698
941.5
781.686
663.963
451.302
264.886
276.057
465.376
681.509
798.982
950.515
798.971
681.497
465.37
276.055
287.696
480.917
700.325
818.974
961.32
818.964
700.314
480.91
287.694
298.93
499.371
731.324
849.439
979.139
849.43
731.313
499.365
298.928
315.075
522.304
761.174
891.001
1003.56
890.993
761.164
522.297
315.073
318.283
525.409
1006.15
1039.41
1085.88
1039.41
1006.14
525.403
318.281
386.957
671.519
1173.68
672.058
736.975
672.055
1173.67
671.514
386.955
470.382
749.434
749.43
470.379
408.248
783.947
536.42
428.469
531.175
428.466
536.417
783.943
408.245
177.192
766.352
719.063
680.42
716.666
680.415
719.058
766.347
177.19
658.987
653.371
688.923
653.365
658.982
653.336
633.579
664.64
633.573
653.331
656.374
627.14
653.665
627.134
656.369
660.161
626.667
649.755
626.662
660.156
663.589
628.278
648.755
628.273
663.584
666.775
630.583
648.889
630.578
666.77
669.857
633.111
649.466
633.107
669.852
672.921
635.729
650.247
635.724
672.916
675.959
638.352
651.125
638.348
675.954
679.155
641.119
652.161
641.116
679.151
681.779
643.387
652.99
643.383
681.775
686.846
647.802
654.936
647.799
686.842
310.432
266.707
277.682
340.761
420.631
340.757
277.68
266.706
310.432
333.162
282.132
289.191
348.209
424.691
348.205
289.189
282.131
333.161
318.641
285.551
296.766
356.257
430.052
356.253
296.764
285.549
318.639
306.616
286.619
303.448
366.382
438.22
366.377
303.445
286.616
306.613
300.88
289.102
311.969
379.857
450
379.852
311.966
289.099
300.877
299.709
293.92
323.467
396.915
465.233
396.909
323.462
293.917
299.705
301.933
301.425
338.319
417.222
483.331
417.216
338.314
301.422
301.93
307.275
311.989
356.619
440.256
503.641
440.249
356.613
311.985
307.271
316.011
326.049
378.315
465.451
525.563
465.444
378.308
326.044
316.006
328.587
343.981
403.202
492.225
548.558
492.217
403.194
343.975
328.582
346.157
366.248
430.937
519.958
572.102
519.95
430.928
366.241
346.151
367.345
392.367
460.822
547.929
595.635
547.921
460.812
392.359
367.338
406.423
425.922
492.458
575.334
618.572
575.326
492.446
425.913
406.414
413.662
452.714
522.012
600.878
640.436
600.869
522
452.704
413.653
758.275
541.878
557.474
625.443
662.303
625.434
557.462
541.866
758.258
457.023
444.385
536.621
644.696
688.796
644.686
536.608
444.373
457.012
483.093
784.514
720.003
694.99
734.547
694.979
719.988
784.508
483.093
474.524
1012.25
1019.04
790.551
788.357
790.539
1019.02
1012.25
474.525
390.544
886.401
1081.13
851.018
826.063
851.006
1081.12
886.399
390.545
410.865
823.076
1077.42
882.585
851.191
882.573
1077.4
823.073
410.866
425.634
792.902
1062.53
900.691
870.327
900.68
1062.51
792.898
425.635
430.462
774.22
1047.72
913.381
886.95
913.371
1047.71
774.217
430.463
430.878
759.912
1034.52
923.726
902.318
923.717
1034.51
759.908
430.878
430.024
748.067
1022.6
932.878
916.847
932.869
1022.59
748.062
430.023
429.2
738.347
1011.79
941.497
930.927
941.488
1011.77
738.342
429.199
428.863
731.079
1002.68
950.512
945.428
950.503
1002.67
731.074
428.863
429.592
727.153
995.509
961.319
961.889
961.311
995.498
727.148
429.592
430.524
727.33
998.934
979.138
984.442
979.131
998.924
727.326
430.523
438.698
733.063
1000.41
1003.56
1012.97
1003.56
1000.4
733.059
438.697
433.082
702.355
1193.42
1085.88
1064.84
1085.87
1193.41
702.351
433.082
516.667
838.729
1359
736.975
815.431
736.974
1358.99
838.725
516.666
608.841
912.368
912.365
608.841
500.405
931.68
684.253
531.18
503.261
531.182
684.255
931.678
500.404
155.909
718.646
734.945
716.672
650.367
716.673
734.944
718.643
155.909
657.108
688.93
653.947
688.93
657.105
645.803
664.647
639.037
664.646
645.8
645.484
653.672
629.707
653.671
645.48
647.258
649.761
625.807
649.76
647.254
649.508
648.762
624.657
648.761
649.504
651.95
648.895
624.676
648.894
651.946
654.501
649.472
625.151
649.472
654.497
657.153
650.254
625.805
650.253
657.149
659.851
651.131
626.521
651.13
659.847
662.775
652.167
627.342
652.167
662.771
665.152
652.997
627.983
652.996
665.148
670.006
654.942
629.463
654.941
670.002
248.071
261.209
305.739
324.013
340.755
324.013
305.738
261.208
248.07
273.083
302.825
345.791
343.215
348.202
343.214
345.789
302.824
273.082
267.844
304.049
353.074
352.948
356.251
352.947
353.071
304.048
267.844
268.631
299.469
349.128
358.352
366.375
358.351
349.126
299.468
268.63
271.147
296.709
345.269
364.813
379.85
364.811
345.266
296.707
271.146
273.822
296.336
344.748
374.682
396.906
374.679
344.744
296.334
273.82
276.771
298.218
348.345
388.63
417.213
388.627
348.342
298.216
276.769
280.653
302.642
356.353
406.613
440.246
406.609
356.349
302.639
280.651
286.428
310.275
368.96
428.256
465.441
428.252
368.955
310.271
286.425
295.24
321.932
386.207
452.991
492.214
452.986
386.202
321.928
295.236
308.512
338.409
407.898
480.088
519.948
480.083
407.892
338.405
308.508
326.989
360.055
433.444
508.628
547.918
508.623
433.437
360.05
326.985
354.924
387.647
461.815
537.421
575.323
537.415
461.807
387.641
354.919
382.065
417.03
490.316
564.649
600.866
564.642
490.307
417.023
382.059
461.529
453.722
515.948
588.617
625.431
588.61
515.939
453.714
461.522
420.784
440.462
524.619
606.97
644.683
606.963
524.609
440.455
420.777
300.886
406.04
533.738
632.751
694.976
632.744
533.728
406.034
300.883
238.381
393.791
551.618
662.514
790.536
662.505
551.609
393.787
238.38
208.714
382.679
562.276
682.412
851.003
682.404
562.267
382.676
208.714
210.467
386.408
575.635
698.838
882.571
698.829
575.626
386.405
210.467
220.543
397.451
592.474
715.308
900.677
715.3
592.466
397.448
220.544
231.787
410.71
610.817
732.174
913.369
732.165
610.808
410.707
231.786
242.878
424.301
629.179
748.883
923.715
748.875
629.17
424.297
242.878
253.854
437.789
646.884
765.328
932.868
765.321
646.874
437.786
253.854
264.889
451.307
663.97
781.687
941.487
781.679
663.961
451.303
264.888
276.058
465.377
681.505
798.973
950.503
798.966
681.498
465.372
276.057
287.698
480.918
700.324
818.968
961.31
818.961
700.316
480.913
287.697
298.932
499.374
731.325
849.435
979.131
849.429
731.317
499.369
298.931
315.077
522.308
761.177
890.999
1003.56
890.994
761.17
522.303
315.076
318.287
525.414
1006.16
1039.41
1085.87
1039.41
1006.15
525.411
318.285
386.962
671.525
1173.68
672.058
736.976
672.056
1173.68
671.522
386.96
470.386
749.441
749.439
470.385
408.25
783.953
536.424
428.474
531.186
428.474
536.425
783.951
408.249
177.19
766.353
719.065
680.426
716.678
680.424
719.063
766.348
177.189
658.988
653.375
688.935
653.375
658.985
653.337
633.583
664.651
633.582
653.333
656.375
627.144
653.676
627.143
656.371
660.162
626.671
649.765
626.67
660.158
663.59
628.283
648.766
628.281
663.586
666.777
630.588
648.899
630.586
666.772
669.859
633.116
649.476
633.115
669.855
672.923
635.734
650.258
635.732
672.919
675.961
638.357
651.135
638.355
675.957
679.157
641.125
652.171
641.123
679.153
681.782
643.392
653
643.39
681.778
686.849
647.808
654.946
647.806
686.845
303.591
315.915
347.752
305.737
277.679
305.737
347.751
315.914
303.591
340.676
411.329
440.452
345.788
289.187
345.789
440.451
411.328
340.676
294.574
355.577
418.239
353.071
296.762
353.071
418.238
355.576
294.574
289.362
322.292
387.332
349.125
303.444
349.125
387.331
322.292
289.361
288.537
307.873
366.927
345.265
311.964
345.266
366.926
307.873
288.536
288.048
302.191
355.298
344.744
323.461
344.744
355.297
302.19
288.048
287.722
300.296
349.442
348.341
338.312
348.341
349.44
300.295
287.721
287.811
300.511
347.967
356.349
356.611
356.348
347.965
300.51
287.81
288.851
302.77
350.694
368.955
378.305
368.954
350.692
302.768
288.849
291.769
307.809
357.999
386.202
403.192
386.201
357.996
307.806
291.768
297.885
316.729
370.33
407.893
430.926
407.891
370.327
316.725
297.883
308.633
330.558
387.838
433.439
460.809
433.436
387.834
330.555
308.63
325.415
349.888
410.006
461.81
492.444
461.806
410.002
349.884
325.412
348.763
374.006
434.92
490.311
521.998
490.307
434.915
374.002
348.76
376.477
399.578
458.779
515.943
557.46
515.939
458.773
399.574
376.473
403.007
420.281
475.825
524.613
536.606
524.609
475.819
420.276
403.003
421.656
425.975
491.149
533.733
719.986
533.728
491.143
425.97
421.65
403.491
416.616
501.983
551.613
1019.02
551.608
501.977
416.61
403.486
376.232
411.027
508.203
562.272
1081.12
562.266
508.197
411.022
376.228
367.194
416.107
517.134
575.632
1077.4
575.626
517.128
416.102
367.19
370.917
428.277
529.541
592.472
1062.51
592.465
529.535
428.271
370.912
380.603
443.578
543.85
610.814
1047.71
610.806
543.844
443.572
380.598
392.524
459.688
558.633
629.176
1034.51
629.168
558.626
459.682
392.519
404.932
475.471
573.119
646.881
1022.59
646.873
573.113
475.465
404.928
416.964
490.425
586.995
663.967
1011.77
663.959
586.989
490.419
416.959
427.974
504.197
600.578
681.502
1002.67
681.495
600.573
504.191
427.97
437.611
517.109
613.896
700.32
995.5
700.314
613.891
517.103
437.607
444.302
526.252
633.658
731.321
998.927
731.315
633.652
526.247
444.298
452.324
544.141
655.89
761.173
1000.4
761.168
655.885
544.136
452.32
448.559
489.495
814.518
1006.15
1193.41
1006.15
814.512
489.49
448.555
490.75
738.9
1751.46
1173.68
1359
1173.68
1751.46
738.896
490.747
578.64
826.211
826.208
578.636
554.837
828.361
545.853
536.426
684.259
536.424
545.85
828.357
554.834
500.213
1027.74
818.781
719.067
734.949
719.065
818.778
1027.73
500.211
743.884
658.988
657.109
658.987
743.881
750.1
653.337
645.804
653.335
750.098
760.11
656.375
645.485
656.373
760.108
765.922
660.162
647.259
660.16
765.92
768.944
663.59
649.509
663.588
768.942
770.727
666.776
651.95
666.774
770.725
772.025
669.858
654.501
669.857
772.023
773.151
672.923
657.153
672.921
773.149
774.205
675.96
659.852
675.959
774.203
775.292
679.157
662.776
679.155
775.291
776.2
681.781
665.152
681.78
776.199
777.904
686.849
670.007
686.847
777.902
272.084
257.02
315.915
261.208
266.705
261.208
315.914
257.02
272.084
319.007
349.28
411.328
302.824
282.131
302.824
411.328
349.28
319.007
262.293
289.084
355.576
304.048
285.548
304.048
355.576
289.084
262.293
254.995
263.803
322.292
299.467
286.616
299.467
322.292
263.803
254.994
258.332
258.548
307.873
296.706
289.099
296.707
307.873
258.548
258.331
262.407
259.904
302.19
296.333
293.916
296.333
302.19
259.903
262.406
265.502
262.847
300.296
298.215
301.42
298.215
300.295
262.846
265.501
267.858
266.117
300.511
302.638
311.984
302.638
300.51
266.116
267.857
270.139
269.86
302.769
310.271
326.042
310.27
302.768
269.859
270.138
273.26
274.887
307.808
321.928
343.973
321.928
307.806
274.885
273.258
278.453
282.414
316.728
338.405
366.24
338.404
316.725
282.412
278.451
287.201
293.849
330.558
360.051
392.358
360.049
330.555
293.846
287.199
300.846
310.304
349.887
387.642
425.912
387.641
349.884
310.302
300.844
320.277
332.052
374.005
417.025
452.703
417.023
374.002
332.049
320.274
345.119
357.867
399.577
453.717
541.865
453.714
399.574
357.864
345.116
374.031
385.663
420.28
440.457
444.372
440.455
420.276
385.66
374.027
428.078
421.261
425.973
406.036
784.507
406.034
425.97
421.257
428.073
482.389
453.609
416.614
393.789
1012.25
393.787
416.611
453.604
482.383
512.913
475.204
411.025
382.677
886.399
382.675
411.022
475.199
512.907
534.266
493.811
416.105
386.407
823.075
386.405
416.102
493.806
534.26
554.099
512.908
428.274
397.45
792.9
397.448
428.272
512.904
554.093
574.054
532.619
443.575
410.709
774.219
410.706
443.573
532.614
574.048
593.797
552.159
459.686
424.299
759.91
424.296
459.683
552.154
593.791
612.652
570.768
475.469
437.788
748.065
437.784
475.466
570.762
612.645
629.976
587.838
490.423
451.305
738.345
451.302
490.42
587.832
629.97
645.119
602.698
504.195
465.374
731.077
465.371
504.192
602.693
645.113
657.418
614.81
517.108
480.916
727.152
480.912
517.104
614.805
657.412
665.933
621.468
526.251
499.371
727.33
499.368
526.248
621.464
665.927
671.222
625.244
544.141
522.306
733.063
522.302
544.138
625.24
671.217
673.758
598.258
489.494
525.412
702.355
525.409
489.492
598.254
673.754
695.563
605.693
738.9
671.523
838.729
671.521
738.897
605.69
695.559
745.066
635.937
826.212
749.439
912.369
749.438
826.209
635.934
745.061
801.87
731.068
828.362
783.952
931.683
783.951
828.359
731.064
801.866
950.806
1074.67
1027.74
766.355
718.648
766.352
1027.74
1074.67
950.805
278.133
272.084
303.591
248.07
310.431
248.07
303.591
272.084
278.133
314.126
319.007
340.676
273.082
333.161
273.082
340.676
319.007
314.126
255.933
262.294
294.574
267.843
318.638
267.844
294.574
262.293
255.933
258.564
254.995
289.362
268.63
306.613
268.63
289.361
254.994
258.563
267.521
258.332
288.537
271.145
300.877
271.146
288.536
258.331
267.52
273.371
262.407
288.048
273.82
299.705
273.82
288.048
262.406
273.369
276.294
265.502
287.721
276.768
301.929
276.769
287.721
265.501
276.292
277.641
267.858
287.81
280.651
307.27
280.651
287.81
267.857
277.639
278.535
270.139
288.85
286.425
316.005
286.425
288.849
270.138
278.533
280.011
273.259
291.769
295.236
328.581
295.236
291.768
273.258
280.009
283.284
278.453
297.884
308.509
346.15
308.508
297.883
278.451
283.282
289.77
287.201
308.632
326.986
367.337
326.985
308.631
287.199
289.768
300.876
300.846
325.414
354.921
406.414
354.919
325.413
300.844
300.873
317.535
320.277
348.762
382.06
413.653
382.059
348.76
320.274
317.532
340.511
345.119
376.475
461.525
758.257
461.522
376.472
345.116
340.508
369.69
374.03
403.006
420.779
457.012
420.777
403.003
374.027
369.686
413.895
428.078
421.654
300.885
483.093
300.884
421.651
428.074
413.891
467.904
482.389
403.488
238.381
474.525
238.38
403.486
482.384
467.899
513.315
512.912
376.23
208.715
390.545
208.714
376.228
512.907
513.309
549.971
534.265
367.191
210.468
410.866
210.467
367.19
534.26
549.965
581.807
554.098
370.914
220.544
425.635
220.543
370.913
554.094
581.801
611.242
574.053
380.6
231.787
430.463
231.786
380.599
574.049
611.235
639.073
593.795
392.521
242.878
430.879
242.877
392.52
593.791
639.066
665.28
612.65
404.93
253.854
430.024
253.853
404.929
612.646
665.274
689.529
629.974
416.961
264.888
429.2
264.887
416.961
629.971
689.522
711.376
645.118
427.972
276.058
428.864
276.057
427.972
645.114
711.369
730.406
657.417
437.61
287.697
429.593
287.696
437.609
657.413
730.4
746.427
665.932
444.301
298.931
430.524
298.93
444.301
665.929
746.421
760.513
671.222
452.324
315.076
438.699
315.076
452.323
671.219
760.508
775.966
673.759
448.559
318.286
433.084
318.285
448.558
673.756
775.961
805.608
695.564
490.751
386.961
516.669
386.96
490.75
695.562
805.603
849.583
745.066
578.641
470.386
608.844
470.384
578.64
745.064
849.579
893.189
801.87
554.839
408.25
500.408
408.249
554.837
801.867
893.185
982.518
950.81
500.216
177.191
155.91
177.191
500.214
950.809
982.52
)
;

boundaryField
{
    injectionXMinus
    {
        type            uniformFixedValue;
        uniformValue    uniform 400;
        value           uniform 400;
    }
    injectionXPlus
    {
        type            uniformFixedValue;
        uniformValue    uniform 400;
        value           uniform 400;
    }
    injectionYMinus
    {
        type            uniformFixedValue;
        uniformValue    uniform 400;
        value           uniform 400;
    }
    injectionYPlus
    {
        type            uniformFixedValue;
        uniformValue    uniform 400;
        value           uniform 400;
    }
    inletXMinus
    {
        type            uniformFixedValue;
        uniformValue    uniform 293.15;
        value           uniform 293.15;
    }
    inletXPlus
    {
        type            uniformFixedValue;
        uniformValue    uniform 293.15;
        value           uniform 293.15;
    }
    inletYMinus
    {
        type            uniformFixedValue;
        uniformValue    uniform 293.15;
        value           uniform 293.15;
    }
    inletYPlus
    {
        type            uniformFixedValue;
        uniformValue    uniform 293.15;
        value           uniform 293.15;
    }
    outlet
    {
        type            zeroGradient;
    }
    valve
    {
        type            zeroGradient;
    }
    walls
    {
        type            zeroGradient;
    }
}


// ************************************************************************* //
