/*--------------------------------*- C++ -*----------------------------------*\
  =========                 |
  \\      /  F ield         | OpenFOAM: The Open Source CFD Toolbox
   \\    /   O peration     | Website:  https://openfoam.org
    \\  /    A nd           | Version:  6
     \\/     M anipulation  |
\*---------------------------------------------------------------------------*/
FoamFile
{
    version     2.0;
    format      ascii;
    class       surfaceScalarField;
    location    "1";
    object      phi;
}
// * * * * * * * * * * * * * * * * * * * * * * * * * * * * * * * * * * * * * //

dimensions      [0 3 -1 0 0 0 0];

internalField   nonuniform List<scalar> 
2752
(
3.06152e-12
3.90625e-05
4.61577e-14
5.8398e-12
3.90625e-05
1.38523e-13
7.75477e-12
3.90625e-05
2.97073e-13
8.46784e-12
3.90625e-05
4.8102e-13
7.83513e-12
3.90625e-05
6.56247e-13
5.94419e-12
3.90625e-05
7.89249e-13
3.12803e-12
3.90625e-05
8.44759e-13
3.90625e-05
7.54587e-13
3.36449e-12
3.90625e-05
4.07582e-14
6.4107e-12
3.90625e-05
1.37802e-13
8.50894e-12
3.90625e-05
3.05631e-13
9.28573e-12
3.90625e-05
5.02989e-13
8.57622e-12
3.90625e-05
6.94247e-13
6.46303e-12
3.90625e-05
8.42812e-13
3.26551e-12
3.90625e-05
9.11342e-13
3.90625e-05
8.36642e-13
3.83081e-12
3.90625e-05
5.1574e-14
7.3391e-12
3.90625e-05
1.84615e-13
9.77279e-12
3.90625e-05
4.16391e-13
1.06886e-11
3.90625e-05
6.94131e-13
9.87884e-12
3.90625e-05
9.68803e-13
7.427e-12
3.90625e-05
1.18704e-12
3.71707e-12
3.90625e-05
1.29205e-12
3.90625e-05
1.19181e-12
4.46362e-12
3.90625e-05
5.79246e-14
8.6366e-12
3.90625e-05
2.53776e-13
1.15549e-11
3.90625e-05
5.9041e-13
1.2676e-11
3.90625e-05
9.98621e-13
1.17266e-11
3.90625e-05
1.40706e-12
8.78831e-12
3.90625e-05
1.73354e-12
4.32744e-12
3.90625e-05
1.88914e-12
3.90625e-05
1.73342e-12
5.18665e-12
3.90625e-05
3.49355e-14
1.01877e-11
3.90625e-05
3.22831e-13
1.37022e-11
3.90625e-05
8.03033e-13
1.50721e-11
3.90625e-05
1.38794e-12
1.39399e-11
3.90625e-05
1.97523e-12
1.03846e-11
3.90625e-05
2.44096e-12
4.97957e-12
3.90625e-05
2.64908e-12
3.90625e-05
2.3855e-12
5.85642e-12
3.90625e-05
-5.97981e-14
1.17665e-11
3.90625e-05
3.46776e-13
1.59118e-11
3.90625e-05
9.96253e-13
1.75287e-11
3.90625e-05
1.7841e-12
1.61713e-11
3.90625e-05
2.5703e-12
1.19234e-11
3.90625e-05
3.1782e-12
5.49299e-12
3.90625e-05
3.41336e-12
3.90625e-05
2.96768e-12
6.26681e-12
3.90625e-05
-2.82686e-13
1.30268e-11
3.90625e-05
2.53006e-13
1.77096e-11
3.90625e-05
1.06214e-12
1.94981e-11
3.90625e-05
2.02918e-12
1.78814e-11
3.90625e-05
2.97559e-12
1.29733e-11
3.90625e-05
3.67128e-12
5.64141e-12
3.90625e-05
3.8677e-12
3.90625e-05
3.17022e-12
6.19203e-12
3.90625e-05
-6.72821e-13
1.35386e-11
3.90625e-05
-3.16695e-14
1.84924e-11
3.90625e-05
8.67519e-13
2.02863e-11
3.90625e-05
1.91088e-12
1.84071e-11
3.90625e-05
2.89304e-12
1.30457e-11
3.90625e-05
3.55184e-12
5.23713e-12
3.90625e-05
3.61668e-12
3.90625e-05
2.66988e-12
5.48871e-12
3.90625e-05
-1.1889e-12
1.29097e-11
3.90625e-05
-5.07646e-13
1.76826e-11
3.90625e-05
3.41448e-13
1.92442e-11
3.90625e-05
1.27899e-12
1.71726e-11
3.90625e-05
2.1036e-12
1.17982e-11
3.90624e-05
2.57289e-12
4.26973e-12
3.90624e-05
2.44698e-12
3.90624e-05
1.40925e-12
4.22512e-12
3.90625e-05
-1.64463e-12
1.09827e-11
3.90625e-05
-9.98474e-13
1.49877e-11
3.90625e-05
-3.81845e-13
1.60756e-11
3.90625e-05
2.39623e-13
1.39888e-11
3.90624e-05
7.17001e-13
9.23718e-12
3.90624e-05
8.6774e-13
2.97757e-12
3.90624e-05
5.92133e-13
3.90624e-05
-2.44115e-13
2.70275e-12
3.90625e-05
-1.76229e-12
7.96249e-12
3.90625e-05
-1.23097e-12
1.06548e-11
3.90625e-05
-9.77576e-13
1.11238e-11
3.90625e-05
-8.24355e-13
9.27395e-12
3.90624e-05
-8.36573e-13
5.8102e-12
3.90624e-05
-1.03603e-12
1.715e-12
3.90624e-05
-1.37437e-12
3.90624e-05
-1.76534e-12
1.3064e-12
3.90625e-05
-1.36669e-12
4.3515e-12
3.90625e-05
-1.08856e-12
5.47853e-12
3.90625e-05
-1.24629e-12
5.3189e-12
3.90625e-05
-1.5845e-12
4.04485e-12
3.90625e-05
-2.02809e-12
2.29613e-12
3.90624e-05
-2.4931e-12
7.66571e-13
3.90624e-05
-2.7554e-12
3.90624e-05
-2.59567e-12
2.8418e-13
3.90625e-05
-5.86907e-13
8.55909e-13
3.90625e-05
-6.75662e-13
5.72075e-13
3.90625e-05
-1.16485e-12
3.80718e-14
3.90625e-05
-1.83152e-12
-4.75128e-13
3.90625e-05
-2.53839e-12
-4.23994e-13
3.90625e-05
-3.05644e-12
3.31835e-13
3.90625e-05
-3.14045e-12
3.90625e-05
-2.52506e-12
-5.00868e-13
3.90625e-05
-2.14059e-14
-1.59342e-12
3.90625e-05
-3.33907e-13
-2.64978e-12
3.90625e-05
-9.29926e-13
-3.25587e-12
3.90625e-05
-1.64628e-12
-3.02181e-12
3.90625e-05
-2.28028e-12
-1.73258e-12
3.90625e-05
-2.62719e-12
3.40749e-13
3.90625e-05
-2.5291e-12
3.90625e-05
-1.71159e-12
-9.30111e-13
3.90625e-05
1.27332e-13
-2.36821e-12
3.90625e-05
-1.41829e-13
-3.40183e-12
3.90625e-05
-5.62236e-13
-3.74713e-12
3.90625e-05
-1.00869e-12
-3.13464e-12
3.90625e-05
-1.34624e-12
-1.58403e-12
3.90625e-05
-1.47233e-12
5.36744e-13
3.90625e-05
-1.30559e-12
3.90625e-05
-6.23356e-13
-5.65918e-13
7.02046e-14
-1.24464e-12
-1.62318e-14
-1.6779e-12
-1.3165e-13
-1.74283e-12
-2.37468e-13
-1.36731e-12
-3.01304e-13
-6.00717e-13
-3.04393e-13
4.5109e-13
-2.2359e-13
6.02934e-15
3.15389e-12
3.90625e-05
2.8317e-14
5.99835e-12
3.90625e-05
6.36375e-14
7.93871e-12
3.90625e-05
1.25118e-13
8.64306e-12
3.90625e-05
1.94754e-13
7.96813e-12
3.90625e-05
2.57408e-13
5.9997e-12
3.90625e-05
3.00935e-13
3.03786e-12
3.90625e-05
3.17776e-13
3.90625e-05
3.1277e-13
3.46153e-12
3.90625e-05
2.79037e-14
6.57853e-12
3.90625e-05
6.85342e-14
8.70629e-12
3.90625e-05
1.39833e-13
9.47699e-12
3.90625e-05
2.22468e-13
8.72478e-12
3.90625e-05
2.9901e-13
6.53156e-12
3.90625e-05
3.54836e-13
3.19081e-12
3.90625e-05
3.79423e-13
3.90625e-05
3.76386e-13
3.96385e-12
3.90625e-05
3.76845e-14
7.57088e-12
3.90625e-05
9.42407e-14
1.00505e-11
3.90625e-05
1.95025e-13
1.09633e-11
3.90625e-05
3.14581e-13
1.00971e-11
3.90625e-05
4.27827e-13
7.53201e-12
3.90625e-05
5.12209e-13
3.61682e-12
3.90625e-05
5.51119e-13
3.90625e-05
5.47111e-13
4.65947e-12
3.90625e-05
4.99539e-14
8.97323e-12
3.90625e-05
1.34636e-13
1.19631e-11
3.90625e-05
2.84825e-13
1.30844e-11
3.90625e-05
4.65559e-13
1.20531e-11
3.90625e-05
6.38676e-13
8.9439e-12
3.90625e-05
7.67858e-13
4.17173e-12
3.90625e-05
8.25446e-13
3.90625e-05
8.12935e-13
5.47454e-12
3.90625e-05
5.5658e-14
1.06679e-11
3.90625e-05
1.81554e-13
1.42871e-11
3.90625e-05
4.00648e-13
1.56594e-11
3.90625e-05
6.65473e-13
1.44056e-11
3.90625e-05
9.18896e-13
1.05927e-11
3.90625e-05
1.10409e-12
4.71599e-12
3.90625e-05
1.17663e-12
3.90625e-05
1.13673e-12
6.26299e-12
3.90625e-05
3.5213e-14
1.2416e-11
3.90625e-05
2.12686e-13
1.66997e-11
3.90625e-05
5.125e-13
1.83149e-11
3.90625e-05
8.72848e-13
1.67792e-11
3.90625e-05
1.21222e-12
1.21586e-11
3.90625e-05
1.44776e-12
5.04731e-12
3.90625e-05
1.51456e-12
3.90625e-05
1.41442e-12
6.80251e-12
3.90625e-05
-3.99004e-14
1.38359e-11
3.90625e-05
1.89205e-13
1.86766e-11
3.90625e-05
5.61382e-13
2.04445e-11
3.90625e-05
9.99698e-13
1.85771e-11
3.90625e-05
1.39691e-12
1.31697e-11
3.90625e-05
1.64479e-12
4.94394e-12
3.90625e-05
1.66308e-12
3.90625e-05
1.46611e-12
6.83318e-12
3.90625e-05
-1.9184e-13
1.44378e-11
3.90625e-05
6.94056e-14
1.95357e-11
3.90625e-05
4.72301e-13
2.12684e-11
3.90625e-05
9.26629e-13
1.90659e-11
3.90625e-05
1.30698e-12
1.31105e-11
3.90625e-05
1.49398e-12
4.29032e-12
3.90625e-05
1.41363e-12
3.90625e-05
1.11523e-12
6.16996e-12
3.90625e-05
-4.01154e-13
1.37588e-11
3.90625e-05
-1.53243e-13
1.86201e-11
3.90625e-05
2.04214e-13
2.00688e-11
3.90625e-05
5.74987e-13
1.76419e-11
3.90625e-05
8.36645e-13
1.16723e-11
3.90624e-05
8.87521e-13
3.232e-12
3.90624e-05
6.92821e-13
3.90624e-05
3.64567e-13
4.87128e-12
3.90625e-05
-5.6282e-13
1.15994e-11
3.90625e-05
-3.8979e-13
1.56091e-11
3.90625e-05
-1.66346e-13
1.6553e-11
3.90625e-05
2.69643e-14
1.41396e-11
3.90624e-05
8.32849e-14
8.96157e-12
3.90624e-05
-2.17641e-14
2.14132e-12
3.90624e-05
-2.73385e-13
3.90624e-05
-5.19214e-13
3.23407e-12
3.90625e-05
-5.37836e-13
8.21589e-12
3.90625e-05
-4.67076e-13
1.0808e-11
3.90625e-05
-4.3591e-13
1.11116e-11
3.90625e-05
-4.95909e-13
9.07449e-12
3.90624e-05
-6.6096e-13
5.47187e-12
3.90624e-05
-9.06057e-13
1.32403e-12
3.90624e-05
-1.13718e-12
3.90624e-05
-1.23314e-12
1.58454e-12
3.90625e-05
-3.23198e-13
4.19376e-12
3.90625e-05
-3.74688e-13
5.14032e-12
3.90625e-05
-5.58977e-13
4.87531e-12
3.90625e-05
-8.39468e-13
3.57984e-12
3.90625e-05
-1.17614e-12
2.03383e-12
3.90624e-05
-1.45522e-12
9.26297e-13
3.90624e-05
-1.57193e-12
3.90624e-05
-1.49094e-12
1.95425e-13
3.90625e-05
-6.95041e-14
3.66725e-13
3.90625e-05
-2.05799e-13
-9.46034e-14
3.90625e-05
-5.07665e-13
-6.68799e-13
3.90625e-05
-8.98186e-13
-9.93169e-13
3.90625e-05
-1.25401e-12
-5.08012e-13
3.90625e-05
-1.45715e-12
9.47231e-13
3.90625e-05
-1.44252e-12
3.90625e-05
-1.23273e-12
-8.13369e-13
3.90625e-05
1.2339e-13
-2.18944e-12
3.90625e-05
-3.01094e-14
-3.36613e-12
3.90625e-05
-3.37797e-13
-3.88988e-12
3.90625e-05
-6.76836e-13
-3.36872e-12
3.90625e-05
-9.34393e-13
-1.63449e-12
3.90625e-05
-1.02944e-12
1.15826e-12
3.90625e-05
-9.32417e-13
3.90625e-05
-7.10263e-13
-1.19927e-12
3.90625e-05
1.66573e-13
-2.78861e-12
3.90625e-05
5.41623e-14
-3.84828e-12
3.90625e-05
-1.49214e-13
-4.08468e-12
3.90625e-05
-3.48984e-13
-3.26073e-12
3.90625e-05
-4.77618e-13
-1.41729e-12
3.90625e-05
-4.9634e-13
1.21897e-12
3.90625e-05
-3.94759e-13
3.90625e-05
-2.50735e-13
-6.52354e-13
8.44333e-14
-1.36006e-12
3.94957e-14
-1.78372e-12
-2.73578e-14
-1.80666e-12
-8.71774e-14
-1.3704e-12
-1.19426e-13
-5.19914e-13
-1.1461e-13
6.80709e-13
-7.14169e-14
-2.44472e-14
3.18921e-12
3.90625e-05
1.85731e-14
6.05983e-12
3.90625e-05
3.31269e-14
8.00835e-12
3.90625e-05
6.14096e-14
8.70572e-12
3.90625e-05
9.29155e-14
8.01165e-12
3.90625e-05
1.20093e-13
6.01654e-12
3.90625e-05
1.3837e-13
3.03285e-12
3.90625e-05
1.46246e-13
3.90625e-05
1.47768e-13
3.50216e-12
3.90625e-05
2.09883e-14
6.64983e-12
3.90625e-05
3.91797e-14
8.78893e-12
3.90625e-05
7.43341e-14
9.55353e-12
3.90625e-05
1.14479e-13
8.78061e-12
3.90625e-05
1.50232e-13
6.55615e-12
3.90625e-05
1.75262e-13
3.18777e-12
3.90625e-05
1.8722e-13
3.90625e-05
1.91138e-13
4.02041e-12
3.90625e-05
2.93243e-14
7.67166e-12
3.90625e-05
5.55677e-14
1.01701e-11
3.90625e-05
1.0736e-13
1.10765e-11
3.90625e-05
1.68316e-13
1.01815e-11
3.90625e-05
2.24178e-13
7.57092e-12
3.90625e-05
2.64359e-13
3.61281e-12
3.90625e-05
2.8427e-13
3.90625e-05
2.90246e-13
4.74415e-12
3.90625e-05
4.20854e-14
9.12342e-12
3.90625e-05
8.27983e-14
1.21438e-11
3.90625e-05
1.62734e-13
1.32575e-11
3.90625e-05
2.581e-13
1.21823e-11
3.90625e-05
3.46321e-13
9.00149e-12
3.90625e-05
4.09437e-13
4.15922e-12
3.90625e-05
4.38876e-13
3.90625e-05
4.42794e-13
5.60044e-12
3.90625e-05
5.54224e-14
1.08869e-11
3.90625e-05
1.17121e-13
1.45519e-11
3.90625e-05
2.36231e-13
1.59128e-11
3.90625e-05
3.78402e-13
1.45908e-11
3.90625e-05
5.08666e-13
1.06653e-11
3.90625e-05
5.98095e-13
4.6761e-12
3.90625e-05
6.32095e-13
3.90625e-05
6.21578e-13
6.44046e-12
3.90625e-05
5.90284e-14
1.27158e-11
3.90625e-05
1.45511e-13
1.706e-11
3.90625e-05
3.09472e-13
1.86543e-11
3.90625e-05
5.02528e-13
1.70148e-11
3.90625e-05
6.73623e-13
1.22254e-11
3.90625e-05
7.80024e-13
4.94717e-12
3.90625e-05
8.00397e-13
3.90625e-05
7.50866e-13
7.03161e-12
3.90625e-05
3.69742e-14
1.42081e-11
3.90625e-05
1.45251e-13
1.91149e-11
3.90625e-05
3.46087e-13
2.08417e-11
3.90625e-05
5.74548e-13
1.8825e-11
3.90625e-05
7.62298e-13
1.3188e-11
3.90625e-05
8.53964e-13
4.74697e-12
3.90625e-05
8.25681e-13
3.90625e-05
7.05478e-13
7.09442e-12
3.90625e-05
-2.38552e-14
1.48407e-11
3.90625e-05
9.26105e-14
1.999e-11
3.90625e-05
3.01116e-13
2.16488e-11
3.90625e-05
5.20716e-13
1.92529e-11
3.90625e-05
6.71518e-13
1.30302e-11
3.90625e-05
6.95796e-13
3.99193e-12
3.90625e-05
5.79093e-13
3.90625e-05
3.7591e-13
6.41787e-12
3.90625e-05
-1.16616e-13
1.41162e-11
3.90625e-05
-1.61143e-14
1.89909e-11
3.90625e-05
1.50134e-13
2.03305e-11
3.90625e-05
2.94264e-13
1.76928e-11
3.90624e-05
3.42125e-13
1.14776e-11
3.90624e-05
2.5147e-13
2.90375e-12
3.90624e-05
3.75111e-14
3.90624e-05
-2.07555e-13
5.04431e-12
3.90625e-05
-1.94509e-13
1.18228e-11
3.90625e-05
-1.37764e-13
1.58025e-11
3.90625e-05
-6.70562e-14
1.66093e-11
3.90625e-05
-5.43775e-14
1.40345e-11
3.90624e-05
-1.46408e-13
8.70995e-12
3.90624e-05
-3.47097e-13
1.89549e-12
3.90624e-05
-6.05111e-13
3.90624e-05
-7.99646e-13
3.30483e-12
3.90625e-05
-1.77303e-13
8.24705e-12
3.90625e-05
-1.77357e-13
1.0748e-11
3.90625e-05
-2.28314e-13
1.09466e-11
3.90625e-05
-3.5667e-13
8.82939e-12
3.90624e-05
-5.73057e-13
5.24074e-12
3.90624e-05
-8.28097e-13
1.22806e-12
3.90624e-05
-1.04388e-12
3.90624e-05
-1.13308e-12
1.53305e-12
3.90625e-05
-5.36616e-14
4.00947e-12
3.90625e-05
-1.05831e-13
4.85983e-12
3.90625e-05
-2.6255e-13
4.53864e-12
3.90625e-05
-4.99265e-13
3.30077e-12
3.90625e-05
-7.64024e-13
1.91711e-12
3.90624e-05
-9.8236e-13
1.00729e-12
3.90624e-05
-1.08836e-12
3.90624e-05
-1.05592e-12
5.91302e-14
3.90625e-05
1.02422e-13
6.48588e-14
3.90625e-05
1.5715e-14
-4.85124e-13
3.90625e-05
-1.91307e-13
-1.02462e-12
3.90625e-05
-4.43761e-13
-1.19631e-12
3.90625e-05
-6.61694e-13
-4.93382e-13
3.90625e-05
-7.78128e-13
1.15702e-12
3.90625e-05
-7.6476e-13
3.90625e-05
-6.5189e-13
-9.66868e-13
3.90625e-05
2.05915e-13
-2.49713e-12
3.90625e-05
1.1215e-13
-3.70517e-12
3.90625e-05
-7.49564e-14
-4.14744e-12
3.90625e-05
-2.63528e-13
-3.46376e-12
3.90625e-05
-3.84836e-13
-1.53747e-12
3.90625e-05
-4.01053e-13
1.38041e-12
3.90625e-05
-3.17166e-13
3.90625e-05
-1.96263e-13
-1.31168e-12
3.90625e-05
1.92384e-13
-2.99199e-12
3.90625e-05
1.1876e-13
-4.04805e-12
3.90625e-05
1.72302e-15
-4.21332e-12
3.90625e-05
-9.59788e-14
-3.27945e-12
3.90625e-05
-1.34445e-13
-1.31571e-12
3.90625e-05
-1.01573e-13
1.363e-12
3.90625e-05
-1.50169e-14
3.90625e-05
6.10643e-14
-6.97292e-13
7.99799e-14
-1.42691e-12
4.93443e-14
-1.84354e-12
1.14402e-14
-1.83891e-12
-1.43909e-14
-1.36558e-12
-1.61529e-14
-4.76721e-13
7.48529e-15
7.27678e-13
4.41248e-14
6.90027e-14
3.20376e-12
3.90625e-05
1.29201e-14
6.08812e-12
3.90625e-05
1.72256e-14
8.03986e-12
3.90625e-05
2.39471e-14
8.7329e-12
3.90625e-05
2.76695e-14
8.02993e-12
3.90625e-05
2.60134e-14
6.02442e-12
3.90625e-05
1.90768e-14
3.03438e-12
3.90625e-05
9.47213e-15
3.90625e-05
3.16479e-15
3.52035e-12
3.90625e-05
1.58e-14
6.68498e-12
3.90625e-05
2.14752e-14
8.82907e-12
3.90625e-05
3.09833e-14
9.58929e-12
3.90625e-05
3.79314e-14
8.80564e-12
3.90625e-05
3.88429e-14
6.5681e-12
3.90625e-05
3.29684e-14
3.19169e-12
3.90625e-05
2.2838e-14
3.90625e-05
1.63532e-14
4.04665e-12
3.90625e-05
2.38403e-14
7.72345e-12
3.90625e-05
3.35551e-14
1.0231e-11
3.90625e-05
5.08835e-14
1.11324e-11
3.90625e-05
6.61208e-14
1.02216e-11
3.90625e-05
7.28333e-14
7.59083e-12
3.90625e-05
6.84358e-14
3.61879e-12
3.90625e-05
5.57792e-14
3.90625e-05
4.58574e-14
4.78487e-12
3.90625e-05
3.72155e-14
9.20336e-12
3.90625e-05
5.45464e-14
1.22392e-11
3.90625e-05
8.50835e-14
1.33457e-11
3.90625e-05
1.1364e-13
1.22454e-11
3.90625e-05
1.28646e-13
9.03093e-12
3.90625e-05
1.24375e-13
4.16314e-12
3.90625e-05
1.0428e-13
3.90625e-05
8.4638e-14
5.66214e-12
3.90625e-05
5.46466e-14
1.10061e-11
3.90625e-05
8.27948e-14
1.46941e-11
3.90625e-05
1.3073e-13
1.6043e-11
3.90625e-05
1.75313e-13
1.46803e-11
3.90625e-05
1.9727e-13
1.06993e-11
3.90625e-05
1.86362e-13
4.66558e-12
3.90625e-05
1.47203e-13
3.90625e-05
1.0438e-13
6.52695e-12
3.90625e-05
7.07673e-14
1.28798e-11
3.90625e-05
1.10762e-13
1.72531e-11
3.90625e-05
1.75708e-13
1.88254e-11
3.90625e-05
2.31926e-13
1.71212e-11
3.90625e-05
2.5026e-13
1.22458e-11
3.90625e-05
2.1552e-13
4.89763e-12
3.90625e-05
1.35466e-13
3.90625e-05
4.7309e-14
7.13989e-12
3.90625e-05
7.75632e-14
1.4409e-11
3.90625e-05
1.25551e-13
1.93434e-11
3.90625e-05
1.97433e-13
2.10295e-11
3.90625e-05
2.47349e-13
1.89167e-11
3.90625e-05
2.36308e-13
1.31597e-11
3.90625e-05
1.47113e-13
4.62676e-12
3.90625e-05
-4.13108e-15
3.90625e-05
-1.61136e-13
7.21089e-12
3.90625e-05
7.01379e-14
1.50492e-11
3.90625e-05
1.15803e-13
2.02096e-11
3.90625e-05
1.71803e-13
2.17996e-11
3.90625e-05
1.81628e-13
1.92772e-11
3.90625e-05
1.02527e-13
1.29135e-11
3.90625e-05
-7.65407e-14
3.78874e-12
3.90625e-05
-3.21087e-13
3.90625e-05
-5.48474e-13
6.51837e-12
3.90625e-05
5.64816e-14
1.42825e-11
3.90625e-05
8.51705e-14
1.91351e-11
3.90625e-05
9.4371e-14
2.03784e-11
3.90625e-05
2.64157e-14
1.76022e-11
3.90624e-05
-1.52438e-13
1.12636e-11
3.90624e-05
-4.33226e-13
2.65868e-12
3.90624e-05
-7.5466e-13
3.90624e-05
-1.00747e-12
5.10106e-12
3.90625e-05
6.2588e-14
1.18935e-11
3.90625e-05
6.22616e-14
1.58151e-11
3.90625e-05
2.55471e-15
1.65173e-11
3.90624e-05
-1.58059e-13
1.38338e-11
3.90624e-05
-4.26577e-13
8.45194e-12
3.90624e-05
-7.65796e-13
1.70096e-12
3.90624e-05
-1.09245e-12
3.90624e-05
-1.28685e-12
3.30478e-12
3.90625e-05
1.22234e-13
8.19609e-12
3.90625e-05
9.20491e-14
1.06197e-11
3.90625e-05
-3.20128e-14
1.07302e-11
3.90625e-05
-2.52591e-13
8.57435e-12
3.90624e-05
-5.47954e-13
5.02496e-12
3.90624e-05
-8.55976e-13
1.13886e-12
3.90624e-05
-1.0924e-12
3.90624e-05
-1.1741e-12
1.48088e-12
3.90625e-05
2.25983e-13
3.85275e-12
3.90625e-05
1.74217e-13
4.62311e-12
3.90625e-05
2.13547e-14
4.27388e-12
3.90625e-05
-1.95903e-13
3.08243e-12
3.90625e-05
-4.28243e-13
1.81111e-12
3.90624e-05
-6.14942e-13
1.03973e-12
3.90624e-05
-7.02579e-13
3.90624e-05
-6.73714e-13
-2.75772e-14
3.90625e-05
3.06681e-13
-1.42163e-13
3.90625e-05
2.43788e-13
-7.37578e-13
3.90625e-05
1.08039e-13
-1.24255e-12
3.90625e-05
-3.87493e-14
-1.31275e-12
3.90625e-05
-1.44985e-13
-4.80013e-13
3.90625e-05
-1.74986e-13
1.26989e-12
3.90625e-05
-1.2177e-13
3.90625e-05
-3.13249e-14
-1.06063e-12
3.90625e-05
2.97707e-13
-2.68424e-12
3.90625e-05
2.35769e-13
-3.89374e-12
3.90625e-05
1.52022e-13
-4.26874e-12
3.90625e-05
1.0034e-13
-3.47998e-12
3.90625e-05
1.16642e-13
-1.45359e-12
3.90625e-05
2.0711e-13
1.50131e-12
3.90625e-05
3.37584e-13
3.90625e-05
4.25278e-13
-1.38531e-12
3.90625e-05
1.92829e-13
-3.10903e-12
3.90625e-05
1.52692e-13
-4.14575e-12
3.90625e-05
1.21961e-13
-4.25178e-12
3.90625e-05
1.35455e-13
-3.24658e-12
3.90625e-05
2.07961e-13
-1.22915e-12
3.90625e-05
3.27636e-13
1.43908e-12
3.90625e-05
4.49752e-13
3.90625e-05
5.11809e-13
-7.27927e-13
5.96356e-14
-1.46481e-12
4.52668e-14
-1.86937e-12
4.24062e-14
-1.84067e-12
6.09852e-14
-1.34195e-12
1.03759e-13
-4.40082e-13
1.62055e-13
7.52556e-13
2.16769e-13
2.3627e-13
3.20807e-12
3.90625e-05
8.55772e-15
6.09484e-12
3.90625e-05
4.24737e-15
8.04358e-12
3.90625e-05
-8.84633e-15
8.73124e-12
3.90625e-05
-3.14438e-14
8.023e-12
3.90625e-05
-6.14808e-14
6.01482e-12
3.90625e-05
-9.48468e-14
3.02807e-12
3.90625e-05
-1.25653e-13
3.90625e-05
-1.45142e-13
3.52603e-12
3.90625e-05
1.30265e-14
6.69449e-12
3.90625e-05
7.87878e-15
8.83602e-12
3.90625e-05
-7.12279e-15
9.5902e-12
3.90625e-05
-3.2928e-14
8.79976e-12
3.90625e-05
-6.77809e-14
6.55797e-12
3.90625e-05
-1.07486e-13
3.18521e-12
3.90625e-05
-1.45636e-13
3.90625e-05
-1.71565e-13
4.05637e-12
3.90625e-05
2.11771e-14
7.74078e-12
3.90625e-05
1.57061e-14
1.02463e-11
3.90625e-05
-1.38453e-15
1.11391e-11
3.90625e-05
-3.27763e-14
1.02173e-11
3.90625e-05
-7.75818e-14
7.57818e-12
3.90625e-05
-1.31075e-13
3.60887e-12
3.90625e-05
-1.84205e-13
3.90625e-05
-2.21519e-13
4.8022e-12
3.90625e-05
3.47796e-14
9.23389e-12
3.90625e-05
2.95778e-14
1.22677e-11
3.90625e-05
9.18937e-15
1.33607e-11
3.90625e-05
-3.20116e-14
1.22411e-11
3.90625e-05
-9.48592e-14
9.01083e-12
3.90625e-05
-1.73538e-13
4.1435e-12
3.90625e-05
-2.54337e-13
3.90625e-05
-3.13424e-13
5.69028e-12
3.90625e-05
5.54648e-14
1.1054e-11
3.90625e-05
5.01271e-14
1.47387e-11
3.90625e-05
2.29766e-14
1.6065e-11
3.90625e-05
-3.63663e-14
1.46694e-11
3.90625e-05
-1.31358e-13
1.06601e-11
3.90625e-05
-2.54291e-13
4.62276e-12
3.90625e-05
-3.83853e-13
3.90625e-05
-4.82603e-13
6.56694e-12
3.90625e-05
8.35724e-14
1.29447e-11
3.90625e-05
7.62485e-14
1.73093e-11
3.90625e-05
3.52552e-14
1.88437e-11
3.90625e-05
-5.63974e-14
1.70864e-11
3.90625e-05
-2.05488e-13
1.21657e-11
3.90625e-05
-4.00515e-13
4.80948e-12
3.90625e-05
-6.08181e-13
3.90625e-05
-7.70775e-13
7.18788e-12
3.90625e-05
1.19994e-13
1.44808e-11
3.90625e-05
1.07057e-13
1.93933e-11
3.90625e-05
4.08747e-14
2.10184e-11
3.90625e-05
-1.0354e-13
1.88275e-11
3.90625e-05
-3.35138e-13
1.30084e-11
3.90625e-05
-6.34507e-13
4.46976e-12
3.90625e-05
-9.49965e-13
3.90625e-05
-1.19573e-12
7.25655e-12
3.90625e-05
1.68909e-13
1.51052e-11
3.90625e-05
1.46373e-13
2.02195e-11
3.90625e-05
4.16603e-14
2.17205e-11
3.90625e-05
-1.76523e-13
1.90981e-11
3.90625e-05
-5.14024e-13
1.26689e-11
3.90625e-05
-9.36661e-13
3.56136e-12
3.90625e-05
-1.36648e-12
3.90625e-05
-1.68388e-12
6.54706e-12
3.90625e-05
2.39753e-13
1.42917e-11
3.90625e-05
2.06608e-13
1.90671e-11
3.90625e-05
5.65048e-14
2.01995e-11
3.90625e-05
-2.40666e-13
1.73214e-11
3.90624e-05
-6.77811e-13
1.09422e-11
3.90624e-05
-1.19742e-12
2.40587e-12
3.90624e-05
-1.69309e-12
3.90624e-05
-2.01837e-12
5.10073e-12
3.90625e-05
3.40438e-13
1.18338e-11
3.90625e-05
3.0193e-13
1.56545e-11
3.90625e-05
1.18619e-13
1.62487e-11
3.90624e-05
-2.26176e-13
1.34946e-11
3.90624e-05
-7.00707e-13
8.12528e-12
3.90624e-05
-1.22491e-12
1.50656e-12
3.90624e-05
-1.67756e-12
3.90624e-05
-1.9168e-12
3.27459e-12
3.90625e-05
4.60476e-13
8.07203e-12
3.90625e-05
4.24826e-13
1.03991e-11
3.90625e-05
2.42691e-13
1.04348e-11
3.90625e-05
-7.52395e-14
8.26633e-12
3.90624e-05
-4.76546e-13
4.78854e-12
3.90624e-05
-8.742e-13
1.05716e-12
3.90624e-05
-1.16578e-12
3.90624e-05
-1.25854e-12
1.42911e-12
3.90625e-05
5.48788e-13
3.69989e-12
3.90625e-05
5.18052e-13
4.40585e-12
3.90625e-05
3.79408e-13
4.04154e-12
3.90625e-05
1.72713e-13
2.89573e-12
3.90625e-05
-4.8306e-14
1.72347e-12
3.90624e-05
-2.22143e-13
1.0686e-12
3.90624e-05
-2.909e-13
3.90624e-05
-2.49663e-13
-9.04702e-14
3.90625e-05
5.28886e-13
-2.77913e-13
3.90625e-05
4.98154e-13
-8.84366e-13
3.90625e-05
4.34369e-13
-1.34879e-12
3.90625e-05
3.86128e-13
-1.34275e-12
3.90625e-05
3.83328e-13
-4.26797e-13
3.90625e-05
4.42988e-13
1.36033e-12
3.90625e-05
5.66031e-13
3.90625e-05
6.76182e-13
-1.12257e-12
3.90625e-05
3.75605e-13
-2.76798e-12
3.90625e-05
3.41027e-13
-3.94542e-12
3.90625e-05
3.58691e-13
-4.25244e-12
3.90625e-05
4.46406e-13
-3.38951e-12
3.90625e-05
6.11347e-13
-1.32311e-12
3.90625e-05
8.31142e-13
1.58901e-12
3.90625e-05
1.04515e-12
3.90625e-05
1.16189e-12
-1.42544e-12
3.90625e-05
1.62096e-13
-3.13976e-12
3.90625e-05
1.53212e-13
-4.13226e-12
3.90625e-05
2.13627e-13
-4.17928e-12
3.90625e-05
3.53262e-13
-3.12691e-12
3.90625e-05
5.5843e-13
-1.10703e-12
3.90625e-05
7.89591e-13
1.50114e-12
3.90625e-05
9.82049e-13
3.90625e-05
1.05889e-12
-7.42296e-13
2.59496e-14
-1.46767e-12
2.77735e-14
-1.85079e-12
6.44064e-14
-1.7979e-12
1.37005e-13
-1.28365e-12
2.35631e-13
-3.85367e-13
3.40679e-13
7.72057e-13
4.19833e-13
4.38147e-13
3.20376e-12
3.90625e-05
1.06099e-14
6.08175e-12
3.90625e-05
1.82851e-15
8.02098e-12
3.90625e-05
-2.58988e-14
8.7012e-12
3.90625e-05
-7.11198e-14
7.98963e-12
3.90625e-05
-1.28118e-13
5.98401e-12
3.90625e-05
-1.89558e-13
3.00858e-12
3.90625e-05
-2.47121e-13
3.90625e-05
-2.8863e-13
3.52088e-12
3.90625e-05
1.9249e-14
6.67949e-12
3.90625e-05
7.70349e-15
8.81022e-12
3.90625e-05
-2.78658e-14
9.55535e-12
3.90625e-05
-8.51681e-14
8.76006e-12
3.90625e-05
-1.57803e-13
6.51982e-12
3.90625e-05
-2.37465e-13
3.15928e-12
3.90625e-05
-3.1592e-13
3.90625e-05
-3.83018e-13
4.05089e-12
3.90625e-05
2.99431e-14
7.72369e-12
3.90625e-05
1.4776e-14
1.02149e-11
3.90625e-05
-3.19005e-14
1.10943e-11
3.90625e-05
-1.08622e-13
1.01638e-11
3.90625e-05
-2.07962e-13
7.52505e-12
3.90625e-05
-3.19033e-13
3.57155e-12
3.90625e-05
-4.2975e-13
3.90625e-05
-5.23341e-13
4.797e-12
3.90625e-05
4.62362e-14
9.2135e-12
3.90625e-05
2.58361e-14
1.22265e-11
3.90625e-05
-3.90807e-14
1.32979e-11
3.90625e-05
-1.48668e-13
1.21624e-11
3.90625e-05
-2.94054e-13
8.93003e-12
3.90625e-05
-4.59711e-13
4.08441e-12
3.90625e-05
-6.26402e-13
3.90625e-05
-7.67264e-13
5.68495e-12
3.90625e-05
7.22348e-14
1.10268e-11
3.90625e-05
4.32029e-14
1.46793e-11
3.90625e-05
-5.13744e-14
1.597e-11
3.90625e-05
-2.14592e-13
1.45464e-11
3.90625e-05
-4.35645e-13
1.05305e-11
3.90625e-05
-6.91364e-13
4.52401e-12
3.90625e-05
-9.50481e-13
3.90625e-05
-1.16929e-12
6.55962e-12
3.90625e-05
1.13149e-13
1.29037e-11
3.90625e-05
7.1202e-14
1.72177e-11
3.90625e-05
-6.79747e-14
1.86947e-11
3.90625e-05
-3.1199e-13
1.68914e-11
3.90625e-05
-6.46855e-13
1.1958e-11
3.90625e-05
-1.03728e-12
4.64688e-12
3.90625e-05
-1.43283e-12
3.90625e-05
-1.76398e-12
7.17494e-12
3.90625e-05
1.78079e-13
1.44147e-11
3.90625e-05
1.20677e-13
1.92489e-11
3.90625e-05
-7.80529e-14
2.07868e-11
3.90625e-05
-4.30357e-13
1.85281e-11
3.90625e-05
-9.16108e-13
1.2693e-11
3.90625e-05
-1.48103e-12
4.22399e-12
3.90625e-05
-2.04611e-12
3.90625e-05
-2.5067e-12
7.23402e-12
3.90625e-05
2.81359e-13
1.50005e-11
3.90625e-05
2.124e-13
2.00013e-11
3.90625e-05
-5.19095e-14
2.1383e-11
3.90625e-05
-5.24902e-13
1.86755e-11
3.90625e-05
-1.17357e-12
1.22391e-11
3.90625e-05
-1.91586e-12
3.24396e-12
3.90625e-05
-2.63563e-12
3.90625e-05
-3.18939e-12
6.51392e-12
3.90625e-05
4.36976e-13
1.41416e-11
3.90625e-05
3.72668e-13
1.87699e-11
3.90625e-05
5.9543e-14
1.97624e-11
3.90625e-05
-5.07463e-13
1.68018e-11
3.90624e-05
-1.27132e-12
1.04465e-11
3.90624e-05
-2.11693e-12
2.08059e-12
3.90624e-05
-2.89231e-12
3.90624e-05
-3.4314e-12
5.06222e-12
3.90625e-05
6.39491e-13
1.16505e-11
3.90625e-05
6.06448e-13
1.53097e-11
3.90625e-05
2.93947e-13
1.57742e-11
3.90624e-05
-2.82239e-13
1.29704e-11
3.90624e-05
-1.03483e-12
7.67263e-12
3.90624e-05
-1.82511e-12
1.26732e-12
3.90624e-05
-2.49173e-12
3.90624e-05
-2.88412e-12
3.23894e-12
3.90625e-05
8.3456e-13
7.8899e-12
3.90625e-05
8.47642e-13
1.00812e-11
3.90625e-05
6.03684e-13
1.00335e-11
3.90625e-05
1.46804e-13
7.86867e-12
3.90624e-05
-4.2249e-13
4.49697e-12
3.90624e-05
-9.73106e-13
9.64398e-13
3.90624e-05
-1.38109e-12
3.90624e-05
-1.56596e-12
1.39838e-12
3.90625e-05
9.15023e-13
3.56125e-12
3.90625e-05
9.55577e-13
4.19916e-12
3.90625e-05
8.21921e-13
3.82052e-12
3.90625e-05
5.95597e-13
2.7219e-12
3.90625e-05
3.44263e-13
1.65471e-12
3.90625e-05
1.47689e-13
1.10983e-12
3.90624e-05
8.13213e-14
3.90624e-05
8.42879e-14
-1.21203e-13
3.90625e-05
7.7705e-13
-3.41697e-13
3.90625e-05
8.04366e-13
-9.32607e-13
3.90625e-05
8.14286e-13
-1.35159e-12
3.90625e-05
8.52714e-13
-1.28309e-12
3.90625e-05
9.40833e-13
-3.03755e-13
3.90625e-05
1.10876e-12
1.47048e-12
3.90625e-05
1.31673e-12
3.90625e-05
1.45966e-12
-1.15715e-12
3.90625e-05
4.52275e-13
-2.75032e-12
3.90625e-05
4.58853e-13
-3.85771e-12
3.90625e-05
5.7825e-13
-4.0875e-12
3.90625e-05
8.14488e-13
-3.16972e-12
3.90625e-05
1.15815e-12
-1.10911e-12
3.90625e-05
1.54273e-12
1.70575e-12
3.90625e-05
1.8996e-12
3.90625e-05
2.10776e-12
-1.43433e-12
3.90625e-05
1.11717e-13
-3.07934e-12
3.90625e-05
1.27074e-13
-3.99262e-12
3.90625e-05
2.92532e-13
-3.97411e-12
3.90625e-05
5.87866e-13
-2.89574e-12
3.90625e-05
9.68506e-13
-9.14575e-13
3.90625e-05
1.36382e-12
1.57797e-12
3.90625e-05
1.68587e-12
3.90625e-05
1.85805e-12
-7.40472e-13
-2.49785e-14
-1.43104e-12
-9.29886e-15
-1.77819e-12
7.66701e-14
-1.69927e-12
2.24027e-13
-1.1786e-12
4.05484e-13
-3.06213e-13
5.84631e-13
7.90371e-13
7.1945e-13
7.99204e-13
3.19497e-12
3.90625e-05
1.46577e-14
6.05402e-12
3.90625e-05
1.10689e-14
7.97576e-12
3.90625e-05
-2.38394e-14
8.6442e-12
3.90625e-05
-8.50366e-14
7.92819e-12
3.90625e-05
-1.63784e-13
5.92645e-12
3.90625e-05
-2.49859e-13
2.96707e-12
3.90625e-05
-3.33949e-13
3.90625e-05
-4.05685e-13
3.50933e-12
3.90625e-05
3.34364e-14
6.64392e-12
3.90625e-05
2.29672e-14
8.75292e-12
3.90625e-05
-3.18862e-14
9.48271e-12
3.90625e-05
-1.23765e-13
8.6804e-12
3.90625e-05
-2.40351e-13
6.44137e-12
3.90625e-05
-3.67991e-13
3.09218e-12
3.90625e-05
-5.00854e-13
3.90625e-05
-6.72474e-13
4.03573e-12
3.90625e-05
4.61652e-14
7.67702e-12
3.90625e-05
3.14275e-14
1.01382e-11
3.90625e-05
-4.21179e-14
1.0995e-11
3.90625e-05
-1.66044e-13
1.00527e-11
3.90625e-05
-3.25028e-13
7.41433e-12
3.90625e-05
-5.00919e-13
3.47796e-12
3.90625e-05
-6.83475e-13
3.90625e-05
-9.00581e-13
4.77659e-12
3.90625e-05
6.52637e-14
9.14859e-12
3.90625e-05
4.33913e-14
1.2117e-11
3.90625e-05
-6.18076e-14
1.31525e-11
3.90625e-05
-2.41616e-13
1.19968e-11
3.90625e-05
-4.75922e-13
8.76334e-12
3.90625e-05
-7.38274e-13
3.94355e-12
3.90625e-05
-1.01123e-12
3.90625e-05
-1.32539e-12
5.65591e-12
3.90625e-05
9.56681e-14
1.09323e-11
3.90625e-05
6.15356e-14
1.45161e-11
3.90625e-05
-9.52532e-14
1.5749e-11
3.90625e-05
-3.66593e-13
1.42907e-11
3.90625e-05
-7.25165e-13
1.02714e-11
3.90625e-05
-1.1307e-12
4.3052e-12
3.90625e-05
-1.55295e-12
3.90625e-05
-2.03312e-12
6.51767e-12
3.90625e-05
1.45679e-13
1.27646e-11
3.90625e-05
9.47756e-14
1.69736e-11
3.90625e-05
-1.38288e-13
1.83598e-11
3.90625e-05
-5.45555e-13
1.6501e-11
3.90625e-05
-1.08885e-12
1.15625e-11
3.90625e-05
-1.70586e-12
4.31573e-12
3.90625e-05
-2.34427e-12
3.90625e-05
-3.05869e-12
7.11754e-12
3.90625e-05
2.31108e-13
1.42159e-11
3.90625e-05
1.66309e-13
1.88966e-11
3.90625e-05
-1.64651e-13
2.03011e-11
3.90625e-05
-7.484e-13
1.79632e-11
3.90625e-05
-1.52923e-12
1.21279e-11
3.90625e-05
-2.41086e-12
3.7634e-12
3.90625e-05
-3.30521e-12
3.90625e-05
-4.27414e-12
7.16506e-12
3.90625e-05
3.76046e-13
1.47361e-11
3.90625e-05
3.1854e-13
1.95283e-11
3.90625e-05
-1.13024e-13
2.07343e-11
3.90625e-05
-8.82173e-13
1.79332e-11
3.90625e-05
-1.90345e-12
1.15193e-11
3.90625e-05
-3.03261e-12
2.6902e-12
3.90625e-05
-4.13178e-12
3.90625e-05
-5.25151e-12
6.44961e-12
3.90625e-05
6.02838e-13
1.38284e-11
3.90625e-05
6.00542e-13
1.82029e-11
3.90625e-05
1.06224e-13
1.89985e-11
3.90625e-05
-7.87929e-13
1.59561e-11
3.90624e-05
-1.95041e-12
9.67114e-12
3.90624e-05
-3.18321e-12
1.5415e-12
3.90624e-05
-4.30123e-12
3.90624e-05
-5.31946e-12
5.02918e-12
3.90625e-05
9.00557e-13
1.1338e-11
3.90625e-05
1.01648e-12
1.47335e-11
3.90625e-05
5.49997e-13
1.50216e-11
3.90625e-05
-3.18087e-13
1.21801e-11
3.90624e-05
-1.41012e-12
7.006e-12
3.90624e-05
-2.50503e-12
8.74929e-13
3.90624e-05
-3.40445e-12
3.90624e-05
-4.06522e-12
3.25202e-12
3.90625e-05
1.17687e-12
7.64594e-12
3.90625e-05
1.41165e-12
9.62427e-12
3.90625e-05
1.06376e-12
9.46422e-12
3.90625e-05
4.22085e-13
7.31806e-12
3.90624e-05
-3.66632e-13
4.08898e-12
3.90624e-05
-1.09948e-12
7.79531e-13
3.90624e-05
-1.60157e-12
3.90624e-05
-1.85936e-12
1.43893e-12