/*--------------------------------*- C++ -*----------------------------------*\
  =========                 |
  \\      /  F ield         | OpenFOAM: The Open Source CFD Toolbox
   \\    /   O peration     | Website:  https://openfoam.org
    \\  /    A nd           | Version:  6
     \\/     M anipulation  |
\*---------------------------------------------------------------------------*/
FoamFile
{
    version     2.0;
    format      ascii;
    class       volScalarField;
    location    "0.4";
    object      alpha_air;
}
// * * * * * * * * * * * * * * * * * * * * * * * * * * * * * * * * * * * * * //

dimensions      [0 0 0 0 0 0 0];

internalField   nonuniform List<scalar> 
3029
(
0.999988
1
0.999808
1.00112
0.983333
1.00112
0.999808
1
0.999989
0.999985
0.999989
0.999807
1.00101
0.981495
1.00101
0.999807
0.999989
0.999985
0.99996
0.99997
0.99964
1.0005
0.974654
1.0005
0.999639
0.999969
0.99996
0.999831
0.99978
0.999351
0.998554
0.961449
0.998552
0.999349
0.999777
0.99983
0.999403
0.999131
0.998663
0.992889
0.939675
0.992886
0.998658
0.999127
0.999402
0.997952
0.997044
0.995659
0.979391
0.906963
0.979388
0.995654
0.997037
0.99795
0.992979
0.990465
0.98564
0.952926
0.861546
0.952923
0.985633
0.990456
0.992976
0.97954
0.973955
0.962165
0.90932
0.802988
0.909318
0.962157
0.973944
0.979536
0.951596
0.941553
0.919873
0.847204
0.732561
0.847203
0.919864
0.94154
0.951591
0.904673
0.889518
0.856956
0.768625
0.653126
0.768624
0.856947
0.889504
0.904667
0.837944
0.818038
0.775809
0.678289
0.568603
0.678289
0.775801
0.818024
0.837936
0.754616
0.731118
0.681894
0.582069
0.483186
0.58207
0.681887
0.731104
0.754609
0.660839
0.635166
0.58193
0.485472
0.400398
0.485474
0.581923
0.635153
0.660831
0.564045
0.53731
0.482059
0.391974
0.321828
0.391975
0.482054
0.537299
0.564037
0.471437
0.444002
0.386969
0.304356
0.248673
0.304358
0.386966
0.443992
0.471429
0.388875
0.360844
0.298323
0.196694
0.10881
0.196696
0.298321
0.360836
0.388869
0.319737
0.287834
0.197991
0.0713583
0.0309783
0.0713593
0.197991
0.287828
0.319731
0.26329
0.226023
0.1221
0.0214876
0.0113116
0.0214881
0.1221
0.226019
0.263285
0.217366
0.179524
0.0832705
0.00836813
0.00687522
0.00836868
0.0832711
0.179521
0.217362
0.179694
0.14502
0.0630177
0.00506118
0.00502101
0.00506166
0.0630177
0.145017
0.17969
0.148377
0.118286
0.050459
0.00414355
0.00386946
0.00414399
0.0504588
0.118284
0.148374
0.122109
0.0967131
0.0412945
0.00375429
0.00298494
0.00375467
0.0412943
0.0967118
0.122106
0.100021
0.0789112
0.0339505
0.00344105
0.00230157
0.00344137
0.0339503
0.0789104
0.100019
0.0814968
0.0641112
0.0278422
0.0031146
0.00177446
0.00311487
0.027842
0.0641108
0.0814953
0.0660529
0.0518164
0.0227069
0.00277109
0.00137059
0.00277131
0.0227068
0.0518163
0.0660518
0.0532763
0.0416506
0.0183916
0.00242418
0.00106314
0.00242435
0.0183915
0.0416506
0.0532755
0.0428008
0.0333013
0.014786
0.00209152
0.000832918
0.00209167
0.014786
0.0333015
0.0428001
0.0342951
0.0265022
0.0118074
0.00179445
0.000670166
0.00179458
0.0118074
0.0265025
0.0342946
0.0274541
0.021029
0.00940143
0.00156308
0.000578189
0.0015632
0.00940153
0.0210294
0.0274537
0.0219917
0.0166994
0.00756914
0.00145392
0.000589045
0.00145405
0.00756931
0.0166998
0.0219912
0.0176501
0.013414
0.00619274
0.0014265
0.000674723
0.00142665
0.00619298
0.0134144
0.0176498
0.0140783
0.0110795
0.00543088
0.00130803
0.000556674
0.00130817
0.00543117
0.0110798
0.014078
0.010671
0.00913333
0.00525901
0.00137258
0.000330319
0.0013727
0.00525931
0.00913361
0.0106707
0.00607335
0.00584935
0.00434292
0.00161311
0.0002407
0.00161326
0.00434317
0.00584944
0.00607303
1
0.999977
0.999333
1.00018
0.967754
1.00018
0.999331
0.999976
1
0.999989
0.999945
0.999293
0.99961
0.963737
0.999608
0.999291
0.999943
0.999989
0.99997
0.999747
0.999078
0.997368
0.952326
0.997365
0.999075
0.999744
0.999968
0.99978
0.999175
0.998452
0.991298
0.931593
0.991294
0.998447
0.99917
0.999777
0.999131
0.997788
0.99597
0.977685
0.899645
0.977681
0.995963
0.997781
0.999126
0.997044
0.993929
0.98791
0.952002
0.855267
0.951998
0.987902
0.993919
0.997036
0.990465
0.983539
0.968635
0.910523
0.798455
0.910519
0.968625
0.983526
0.990454
0.973955
0.96081
0.932766
0.851887
0.730631
0.851884
0.932755
0.960795
0.973942
0.941552
0.9206
0.877566
0.777689
0.654499
0.777687
0.877556
0.920584
0.941537
0.889517
0.860788
0.804047
0.691982
0.573609
0.69198
0.804037
0.860772
0.889501
0.818037
0.783151
0.716492
0.600133
0.491786
0.600133
0.716483
0.783134
0.81802
0.731117
0.692638
0.620986
0.507618
0.412651
0.507618
0.620978
0.692622
0.731101
0.635165
0.595813
0.523924
0.419122
0.339134
0.419123
0.523918
0.595799
0.635149
0.537309
0.499372
0.43088
0.337951
0.273084
0.337953
0.430875
0.499359
0.537295
0.444001
0.409172
0.346125
0.266686
0.217957
0.266688
0.346121
0.409162
0.443989
0.360843
0.329991
0.273209
0.203088
0.155566
0.20309
0.273206
0.329983
0.360833
0.287833
0.264469
0.208656
0.126342
0.0715877
0.126343
0.208655
0.264463
0.287824
0.226022
0.212153
0.155419
0.0709202
0.030131
0.0709212
0.155418
0.212148
0.226015
0.179523
0.171477
0.118862
0.0453823
0.0176889
0.0453831
0.118862
0.171473
0.179518
0.145019
0.139566
0.0938575
0.033298
0.0132315
0.0332986
0.0938575
0.139563
0.145015
0.118286
0.113873
0.0754225
0.0262652
0.0108901
0.0262657
0.0754225
0.11387
0.118282
0.0967128
0.0927791
0.060948
0.0212928
0.00917762
0.0212933
0.060948
0.0927768
0.0967101
0.078911
0.0753089
0.0492053
0.0173714
0.00773812
0.0173719
0.0492054
0.075307
0.0789089
0.0641111
0.0608249
0.039567
0.0141537
0.00649392
0.014154
0.0395672
0.0608234
0.0641096
0.0518164
0.0488529
0.0316456
0.0114876
0.00542492
0.0114879
0.0316458
0.0488516
0.0518152
0.0416506
0.0390026
0.0251504
0.00928562
0.00452232
0.00928587
0.0251506
0.0390016
0.0416497
0.0333014
0.030937
0.0198407
0.00748682
0.00378439
0.00748704
0.0198409
0.0309363
0.0333007
0.0265022
0.0243621
0.0155126
0.00604802
0.00321677
0.00604822
0.0155129
0.0243616
0.0265017
0.0210291
0.0190225
0.0119888
0.00493901
0.00283038
0.00493921
0.0119891
0.0190222
0.0210287
0.0166994
0.0147452
0.00919096
0.0041578
0.00264495
0.00415802
0.00919136
0.0147451
0.0166992
0.0134141
0.011249
0.00616678
0.00308623
0.00219253
0.00308652
0.00616729
0.0112491
0.0134139
0.0110795
0.00935067
0.00510056
0.00256591
0.00186727
0.00256627
0.00510124
0.00935092
0.0110793
0.00913336
0.00843407
0.00531179
0.00208789
0.00115088
0.00208818
0.00531232
0.0084343
0.00913318
0.00584937
0.00598131
0.00470628
0.00186958
0.00043947
0.00186986
0.00470669
0.00598142
0.00584915
0.999808
0.999332
1.00084
0.986955
0.900909
0.986952
1.00084
0.999331
0.999808
0.999807
0.999293
1.00067
0.98305
0.890802
0.983047
1.00067
0.99929
0.999806
0.99964
0.999078
0.999712
0.971974
0.867395
0.971971
0.999707
0.999074
0.999638
0.999351
0.998451
0.995781
0.950328
0.830214
0.950324
0.995774
0.998445
0.999347
0.998662
0.995969
0.984703
0.914854
0.780174
0.91485
0.984695
0.99596
0.998655
0.995658
0.987908
0.961231
0.863862
0.719277
0.86386
0.961223
0.987897
0.995649
0.985638
0.968632
0.921081
0.798065
0.650328
0.798063
0.921073
0.96862
0.985627
0.962162
0.932763
0.862731
0.720431
0.576563
0.72043
0.862723
0.932749
0.962149
0.91987
0.877563
0.787956
0.635359
0.501279
0.635359
0.78795
0.877549
0.919855
0.856953
0.804044
0.701147
0.547691
0.427528
0.547692
0.701141
0.80403
0.856937
0.775805
0.716489
0.608027
0.461912
0.357888
0.461913
0.608022
0.716476
0.77579
0.681891
0.620983
0.514401
0.381663
0.294353
0.381665
0.514398
0.620971
0.681876
0.581926
0.523921
0.425279
0.309576
0.238355
0.309578
0.425277
0.523911
0.581913
0.482056
0.430878
0.344492
0.24737
0.190846
0.247372
0.34449
0.43087
0.482045
0.386967
0.346123
0.274719
0.196056
0.152813
0.196058
0.274718
0.346116
0.386957
0.29832
0.273207
0.217797
0.156884
0.126619
0.156886
0.217796
0.273202
0.298313
0.19799
0.208655
0.173763
0.12533
0.0978139
0.125331
0.173763
0.208651
0.197985
0.122099
0.155418
0.139683
0.0972263
0.0691261
0.0972275
0.139683
0.155415
0.122095
0.0832698
0.118861
0.113016
0.0759472
0.0512009
0.0759482
0.113016
0.118859
0.0832674
0.0630172
0.0938569
0.0917276
0.0603171
0.0399482
0.060318
0.0917278
0.0938554
0.063015
0.0504586
0.0754221
0.0743692
0.048342
0.0319973
0.0483427
0.0743692
0.0754205
0.0504567
0.0412943
0.0609477
0.0600706
0.0388172
0.0258508
0.0388178
0.0600705
0.0609461
0.0412927
0.0339504
0.0492052
0.0482749
0.0311034
0.0208923
0.0311039
0.0482748
0.0492037
0.033949
0.0278421
0.039567
0.0385711
0.0248111
0.0168259
0.0248115
0.0385709
0.0395656
0.027841
0.0227069
0.0316456
0.0306177
0.0196779
0.0134815
0.0196782
0.0306176
0.0316444
0.0227059
0.0183916
0.0251504
0.0241158
0.0154968
0.0107389
0.0154971
0.0241157
0.0251494
0.0183909
0.0147861
0.0198407
0.0187964
0.0120887
0.0084965
0.012089
0.0187964
0.0198399
0.0147855
0.0118074
0.0155127
0.0144105
0.00929063
0.00666098
0.00929094
0.0144106
0.015512
0.0118069
0.00940152
0.0119889
0.0107036
0.00693815
0.00513219
0.00693846
0.0107038
0.0119884
0.00940112
0.00756923
0.00919103
0.00736132
0.0048077
0.00374938
0.00480802
0.00736155
0.00919074
0.00756892
0.00619282
0.00616683
0.00299183
0.00213434
0.00186904
0.00213464
0.00299218
0.00616681
0.00619259
0.00543096
0.0051006
0.00510072
0.0054308
0.00525908
0.00531184
0.00516742
0.00284897
0.00138209
0.00284931
0.00516788
0.00531198
0.00525894
0.00434296
0.00470632
0.00488359
0.00264562
0.000946062
0.00264599
0.0048841
0.00470638
0.0043428
0.00459304
0.00258154
0.000872538
0.00258186
0.00459372
0.00426846
0.00244975
0.000841202
0.00244991
0.00426906
0.00393467
0.00227935
0.000797901
0.00227945
0.00393527
0.00361437
0.00210389
0.000749649
0.00210398
0.00361495
0.00331477
0.00193558
0.000700942
0.0019357
0.00331534
0.00303738
0.00177817
0.000653867
0.00177831
0.00303795
0.00278154
0.00163221
0.000609076
0.00163238
0.00278209
0.00254592
0.00149731
0.000566719
0.0014975
0.00254645
0.00232924
0.00137288
0.000526799
0.00137309
0.00232977
0.0021285
0.00125722
0.000488838
0.00125746
0.00212901
0.00195267
0.00115563
0.000454942
0.00115589
0.00195317
0.00170302
0.00100799
0.000399769
0.00100829
0.00170353
1.00112
1.00018
0.986953
0.874317
0.678451
0.874315
0.986949
1.00017
1.00112
1.00101
0.999608
0.983048
0.861779
0.662938
0.861777
0.983043
0.999604
1.00101
1.0005
0.997365
0.971972
0.833516
0.631612
0.833515
0.971966
0.99736
1.00049
0.998552
0.991294
0.950325
0.789556
0.587523
0.789555
0.950319
0.991287
0.998546
0.992885
0.977681
0.91485
0.731839
0.534838
0.73184
0.914844
0.977672
0.992878
0.979386
0.951997
0.863859
0.66371
0.477509
0.663712
0.863854
0.951987
0.979377
0.95292
0.910517
0.798062
0.589278
0.418808
0.58928
0.798057
0.910506
0.95291
0.909314
0.85188
0.720427
0.512672
0.361241
0.512675
0.720424
0.85187
0.909303
0.847197
0.777682
0.635355
0.437504
0.306641
0.437507
0.635354
0.777672
0.847186
0.768618
0.691975
0.547688
0.366594
0.256288
0.366598
0.547687
0.691966
0.768606
0.678282
0.600127
0.461909
0.301934
0.211021
0.301938
0.461909
0.600119
0.678271
0.582063
0.507612
0.381661
0.244767
0.171323
0.24477
0.381662
0.507606
0.582053
0.485467
0.419117
0.309574
0.195735
0.137408
0.195738
0.309576
0.419112
0.485458
0.391969
0.337947
0.247369
0.15506
0.109323
0.155063
0.247371
0.337943
0.391961
0.304353
0.266683
0.196055
0.122676
0.086993
0.122678
0.196057
0.26668
0.304347
0.196691
0.203086
0.156883
0.0984665
0.0708716
0.0984689
0.156885
0.203083
0.196687
0.0713574
0.12634
0.125329
0.0818699
0.060526
0.0818719
0.12533
0.126338
0.0713553
0.0214874
0.0709194
0.0972256
0.0690632
0.0515769
0.069065
0.0972264
0.070918
0.021486
0.00836804
0.0453818
0.0759467
0.0576927
0.0430952
0.0576941
0.0759469
0.0453805
0.00836706
0.00506114
0.0332977
0.0603167
0.0475897
0.0355558
0.0475911
0.0603173
0.033297
0.00506029
0.00414353
0.0262649
0.0483417
0.0388637
0.0291065
0.0388648
0.0483418
0.0262645
0.00414278
0.00375428
0.0212927
0.038817
0.0314909
0.0236839
0.0314918
0.0388168
0.0212923
0.00375361
0.00344105
0.0173714
0.0311034
0.025345
0.0191645
0.0253456
0.0311029
0.0173711
0.00344046
0.00311462
0.0141537
0.0248111
0.0202728
0.0154222
0.0202734
0.0248106
0.0141534
0.0031141
0.00277112
0.0114876
0.0196778
0.0161081
0.0123354
0.0161086
0.0196773
0.0114873
0.00277066
0.00242421
0.00928568
0.0154968
0.0126928
0.00979181
0.0126932
0.0154963
0.00928543
0.00242382
0.00209156
0.0074869
0.0120887
0.00988089
0.00768854
0.00988127
0.0120883
0.00748665
0.00209122
0.0017945
0.0060481
0.00929067
0.00753315
0.00592683
0.0075335
0.00929037
0.00604786
0.00179421
0.00156313
0.00493909
0.00693819
0.00550542
0.00440217
0.00550575
0.00693803
0.00493887
0.00156288
0.00145397
0.00415787
0.00480773
0.00360849
0.0029697
0.00360879
0.00480774
0.0041577
0.00145376
0.00142655
0.00308627
0.00213435
0.00151634
0.00135187
0.00151653
0.00213451
0.00308622
0.00142638
0.00130808
0.00256594
0.002566
0.00130796
0.00137263
0.00208793
0.00284901
0.00266389
0.00157223
0.00266429
0.0028494
0.00208801
0.00137252
0.00161316
0.00186963
0.00264565
0.00258517
0.00145754
0.00258565
0.00264605
0.00186961
0.00161303
0.00258157
0.0024199
0.00135424
0.00242044
0.00258215
0.00244978
0.00223689
0.00125865
0.00223726
0.00245027
0.00227938
0.00205624
0.00116511
0.00205655
0.00227986
0.00210391
0.00188543
0.00107591
0.00188572
0.00210437
0.00193561
0.00172671
0.000992132
0.001727
0.00193605
0.00177819
0.00158025
0.000914058
0.00158054
0.00177862
0.00163223
0.00144546
0.00084154
0.00144575
0.00163265
0.00149733
0.00132155
0.000774285
0.00132185
0.00149773
0.00137289
0.00120779
0.000712001
0.00120809
0.00137327
0.00125723
0.00110255
0.000653869
0.00110286
0.0012576
0.00115565
0.00101036
0.000602551
0.00101068
0.001156
0.001008
0.000878236
0.000526265
0.00087858
0.00100835
0.983331
0.967749
0.900904
0.67845
0.430952
0.678452
0.900901
0.967746
0.983331
0.981492
0.963732
0.890797
0.662937
0.419063
0.662939
0.890794
0.963727
0.981489
0.97465
0.95232
0.86739
0.631612
0.396628
0.631613
0.867386
0.952314
0.974646
0.961444
0.931585
0.830209
0.587522
0.366745
0.587525
0.830205
0.931579
0.961438
0.939668
0.899637
0.780169
0.534838
0.332636
0.53484
0.780166
0.89963
0.939662
0.906956
0.855258
0.719272
0.47751
0.296785
0.477512
0.71927
0.855251
0.906948
0.861537
0.798446
0.650324
0.418809
0.260891
0.418811
0.650322
0.798438
0.861529
0.802979
0.730623
0.576559
0.361242
0.22609
0.361245
0.576557
0.730615
0.80297
0.732552
0.654491
0.501276
0.306642
0.193168
0.306645
0.501275
0.654484
0.732543
0.653118
0.573602
0.427525
0.256289
0.162696
0.256293
0.427525
0.573595
0.653109
0.568596
0.491779
0.357887
0.211022
0.135086
0.211026
0.357887
0.491774
0.568588
0.48318
0.412646
0.294351
0.171323
0.11061
0.171328
0.294353
0.412641
0.483172
0.400393
0.33913
0.238353
0.137409
0.0894167
0.137413
0.238356
0.339126
0.400386
0.321824
0.273081
0.190845
0.109324
0.0715555
0.109328
0.190848
0.273078
0.321818
0.24867
0.217955
0.152813
0.0869934
0.0569934
0.0869978
0.152815
0.217952
0.248665
0.108809
0.155564
0.126619
0.0708718
0.0456708
0.070876
0.126621
0.155562
0.108806
0.030978
0.0715869
0.0978133
0.0605261
0.0377161
0.0605299
0.0978147
0.0715851
0.0309763
0.0113115
0.0301307
0.0691256
0.0515769
0.0320565
0.0515803
0.0691264
0.0301292
0.0113102
0.00687518
0.0176887
0.0512006
0.0430952
0.0273512
0.0430981
0.051201
0.0176873
0.00687391
0.00502099
0.0132314
0.0399479
0.0355558
0.023158
0.0355584
0.0399486
0.0132301
0.00501982
0.00386945
0.01089
0.0319971
0.0291065
0.0194283
0.0291084
0.0319978
0.010889
0.00386839
0.00298493
0.00917757
0.0258507
0.0236839
0.016165
0.0236854
0.0258513
0.00917674
0.00298398
0.00230157
0.00773808
0.0208923
0.0191645
0.0133477
0.0191657
0.0208927
0.00773742
0.00230072
0.00177446
0.00649391
0.0168259
0.0154222
0.0109467
0.0154232
0.0168263
0.00649339
0.00177371
0.00137059
0.00542493
0.0134815
0.0123354
0.00891546
0.0123361
0.0134818
0.00542452
0.00136994
0.00106315
0.00452233
0.0107389
0.0097918
0.00720269
0.00979239
0.0107391
0.00452202
0.00106258
0.000832925
0.00378441
0.00849651
0.00768853
0.00575687
0.007689
0.00849668
0.00378417
0.000832444
0.000670175
0.0032168
0.00666099
0.00592683
0.00452388
0.00592719
0.00666113
0.00321662
0.000669765
0.000578199
0.00283042
0.0051322
0.00440216
0.00344041
0.00440244
0.00513234
0.00283028
0.000577851
0.000589058
0.00264498
0.00374939
0.0029697
0.00240667
0.00296988
0.00374956
0.00264492
0.000588762
0.000674736
0.00219255
0.00186904
0.00135187
0.00119337
0.00135191
0.00186914
0.00219254
0.0006745
0.000556686
0.00186729
0.00186737
0.000556523
0.000330329
0.00115089
0.00138211
0.00157224
0.00128546
0.00157249
0.00138231
0.00115092
0.000330176
0.00024071
0.000439481
0.000946076
0.00145755
0.00126937
0.00145777
0.00094611
0.000439265
0.000240517
0.000872552
0.00135426
0.00119744
0.00135434
0.000872474
0.000841215
0.00125866
0.00111102
0.00125873
0.000841061
0.000797914
0.00116512
0.00102457
0.00116519
0.000797722
0.000749661
0.00107592
0.000942603
0.00107597
0.000749425
0.000700953
0.00099214
0.000866264
0.000992176
0.00070068
0.000653877
0.000914066
0.000795597
0.000914092
0.000653575
0.000609086
0.000841547
0.000730332
0.000841569
0.000608758
0.000566728
0.000774291
0.00067011
0.000774309
0.000566378
0.000526807
0.000712007
0.000614601
0.000712024
0.000526441
0.000488846
0.000653875
0.000563047
0.000653892
0.000488466
0.000454949
0.000602556
0.000517634
0.000602574
0.000454559
0.000399775
0.00052627
0.000451237
0.0005263
0.000399369
1.00112
1.00017
0.986947
0.874313
0.678452
0.874313
0.986945
1.00017
1.00112
1.00101
0.999603
0.983042
0.861775
0.662939
0.861775
0.983039
0.999601
1.00101
1.00049
0.99736
0.971965
0.833513
0.631614
0.833513
0.971962
0.997357
1.00049
0.998548
0.991288
0.950318
0.789554
0.587525
0.789555
0.950315
0.991284
0.998545
0.99288
0.977674
0.914844
0.731839
0.534841
0.73184
0.914841
0.977669
0.992877
0.979381
0.95199
0.863854
0.663712
0.477514
0.663713
0.863852
0.951985
0.979376
0.952915
0.910511
0.798058
0.589281
0.418813
0.589283
0.798056
0.910505
0.952909
0.909309
0.851876
0.720426
0.512677
0.361246
0.512679
0.720424
0.85187
0.909303
0.847194
0.777679
0.635356
0.437509
0.306646
0.437512
0.635355
0.777673
0.847187
0.768616
0.691973
0.54769
0.366599
0.256294
0.366603
0.54769
0.691968
0.768608
0.678282
0.600127
0.461912
0.30194
0.211027
0.301944
0.461912
0.600122
0.678274
0.582064
0.507613
0.381664
0.244772
0.171329
0.244777
0.381666
0.507609
0.582056
0.485469
0.419119
0.309578
0.19574
0.137414
0.195745
0.30958
0.419115
0.485461
0.391971
0.33795
0.247372
0.155064
0.109329
0.15507
0.247375
0.337946
0.391965
0.304355
0.266685
0.196058
0.122679
0.0869983
0.122685
0.196061
0.266682
0.304349
0.196693
0.203088
0.156885
0.0984696
0.0708764
0.0984752
0.156888
0.203085
0.196689
0.0713586
0.126342
0.125331
0.0818724
0.0605302
0.0818776
0.125333
0.126339
0.0713562
0.0214879
0.0709205
0.0972271
0.0690654
0.0515806
0.06907
0.0972288
0.0709187
0.0214863
0.00836862
0.0453827
0.0759479
0.0576944
0.0430982
0.0576987
0.0759493
0.0453811
0.00836729
0.00506162
0.0332984
0.0603178
0.0475913
0.0355585
0.0475949
0.0603193
0.0332969
0.00506042
0.00414396
0.0262655
0.0483425
0.0388649
0.0291085
0.038868
0.0483441
0.0262643
0.00414287
0.00375464
0.0212931
0.0388177
0.0314919
0.0236855
0.0314944
0.0388193
0.0212921
0.00375366
0.00344134
0.0173717
0.0311039
0.0253457
0.0191657
0.0253478
0.0311054
0.0173709
0.00344047
0.00311484
0.0141539
0.0248115
0.0202734
0.0154232
0.0202751
0.0248129
0.0141533
0.00311408
0.00277128
0.0114878
0.0196782
0.0161086
0.0123362
0.01611
0.0196794
0.0114873
0.00277062
0.00242433
0.00928585
0.0154971
0.0126932
0.00979241
0.0126943
0.0154981
0.00928551
0.00242376
0.00209165
0.00748703
0.012089
0.00988128
0.00768902
0.00988208
0.0120899
0.00748679
0.00209116
0.00179456
0.00604822
0.00929094
0.00753351
0.00592721
0.0075341
0.00929167
0.00604807
0.00179414
0.00156319
0.00493922
0.00693846
0.00550575
0.00440245
0.00550614
0.00693902
0.00493914
0.00156282
0.00145404
0.00415803
0.00480802
0.00360879
0.00296988
0.00360898
0.00480842
0.00415803
0.00145372
0.00142665
0.00308653
0.00213463
0.00151652
0.0013519
0.0015165
0.00213473
0.00308651
0.00142638
0.00130816
0.00256628
0.00256626
0.00130796
0.00137269
0.00208818
0.00284932
0.0026643
0.0015725
0.00266417
0.00284928
0.00208809
0.00137247
0.00161326
0.00186987
0.002646
0.00258566
0.00145778
0.00258529
0.0026456
0.00186941
0.00161293
0.00258188
0.00242045
0.00135435
0.00241956
0.00258105
0.00244993
0.00223727
0.00125875
0.00223654
0.00244927
0.00227946
0.00205656
0.00116521
0.00205593
0.00227888
0.002104
0.00188573
0.00107598
0.00188513
0.00210343
0.00193571
0.00172701
0.000992185
0.00172644
0.00193513
0.00177832
0.00158055
0.000914101
0.00158
0.00177772
0.00163239
0.00144576
0.000841576
0.00144523
0.00163177
0.00149751
0.00132186
0.000774316
0.00132135
0.00149688
0.0013731
0.0012081
0.00071203
0.0012076
0.00137245
0.00125746
0.00110287
0.000653897
0.00110239
0.0012568
0.0011559
0.00101068
0.000602579
0.00101023
0.00115522
0.0010083
0.000878586
0.000526305
0.000878132
0.00100758
0.999808
0.999329
1.00083
0.986946
0.9009
0.986945
1.00083
0.999329
0.999808
0.999806
0.999289
1.00066
0.98304
0.890792
0.983039
1.00066
0.999288
0.999806
0.999638
0.999072
0.999703
0.971963
0.867385
0.971962
0.999701
0.999071
0.999637
0.999346
0.998443
0.99577
0.950315
0.830204
0.950315
0.995767
0.998441
0.999345
0.998655
0.995958
0.98469
0.914841
0.780165
0.914841
0.984687
0.995955
0.998653
0.995648
0.987895
0.961217
0.863851
0.719269
0.863851
0.961214
0.987891
0.995646
0.985627
0.968618
0.921067
0.798056
0.650322
0.798056
0.921064
0.968614
0.985623
0.962149
0.932747
0.862718
0.720423
0.576557
0.720424
0.862715
0.932742
0.962145
0.919856
0.877548
0.787945
0.635353
0.501275
0.635354
0.787943
0.877543
0.919851
0.85694
0.80403
0.701137
0.547688
0.427526
0.547689
0.701136
0.804025
0.856934
0.775793
0.716476
0.608019
0.46191
0.357888
0.461912
0.608018
0.716471
0.775788
0.68188
0.620972
0.514396
0.381663
0.294354
0.381666
0.514395
0.620968
0.681875
0.581918
0.523913
0.425275
0.309577
0.238356
0.30958
0.425275
0.523909
0.581912
0.48205
0.430872
0.344489
0.247371
0.190849
0.247375
0.34449
0.430868
0.482045
0.386962
0.346118
0.274717
0.196058
0.152816
0.196061
0.274718
0.346115
0.386958
0.298318
0.273204
0.217796
0.156885
0.126621
0.156888
0.217797
0.273202
0.298314
0.197989
0.208653
0.173763
0.125331
0.097815
0.125333
0.173764
0.208651
0.197986
0.122099
0.155417
0.139683
0.0972269
0.0691267
0.0972289
0.139684
0.155415
0.122096
0.0832704
0.118861
0.113016
0.0759473
0.0512012
0.0759495
0.113017
0.118859
0.0832683
0.0630172
0.093857
0.0917278
0.0603176
0.0399488
0.0603194
0.0917287
0.0938556
0.0630154
0.0504584
0.0754222
0.0743692
0.0483421
0.031998
0.0483443
0.0743704
0.075421
0.0504568
0.041294
0.0609478
0.0600706
0.038817
0.0258514
0.0388194
0.0600719
0.0609468
0.0412926
0.0339501
0.0492053
0.0482748
0.0311031
0.0208929
0.0311055
0.0482762
0.0492045
0.0339489
0.0278418
0.0395671
0.038571
0.0248107
0.0168264
0.024813
0.0385723
0.0395664
0.0278408
0.0227066
0.0316457
0.0306176
0.0196774
0.0134819
0.0196796
0.0306189
0.0316452
0.0227058
0.0183914
0.0251506
0.0241157
0.0154964
0.0107392
0.0154983
0.0241169
0.0251502
0.0183907
0.014786
0.0198409
0.0187965
0.0120884
0.00849676
0.01209
0.0187975
0.0198406
0.0147853
0.0118074
0.0155129
0.0144106
0.00929042
0.00666119
0.00929174
0.0144115
0.0155126
0.0118068
0.00940151
0.0119892
0.0107038
0.00693806
0.00513239
0.00693908
0.0107045
0.0119889
0.00940103
0.0075693
0.0091914
0.00736158
0.00480776
0.00374959
0.00480846
0.00736216
0.0091912
0.00756885
0.00619298
0.00616731
0.00299219
0.00213451
0.00186915
0.00213474
0.00299247
0.00616714
0.00619255
0.00543118
0.00510126
0.005101
0.00543076
0.00525933
0.00531236
0.00516792
0.00284941
0.00138233
0.00284932
0.00516771
0.005312
0.00525888
0.00434321
0.00470673
0.00488415
0.00264606
0.000946127
0.00264564
0.00488352
0.00470612
0.00434274
0.00459377
0.00258216
0.00087249
0.00258109
0.00459249
0.0042691
0.00245028
0.000841075
0.0024493
0.00426796
0.00393531
0.00227987
0.000797736
0.00227891
0.00393415
0.00361499
0.00210439
0.000749437
0.00210346
0.00361384
0.00331537
0.00193606
0.000700692
0.00193516
0.00331425
0.00303798
0.00177863
0.000653586
0.00177774
0.00303687
0.00278212
0.00163266
0.000608768
0.00163179
0.00278103
0.00254648
0.00149774
0.000566388
0.00149689
0.00254541
0.00232979
0.00137328
0.00052645
0.00137246
0.00232875
0.00212903
0.00125761
0.000488474
0.00125681
0.00212801
0.00195319
0.00115601
0.000454567
0.00115524
0.00195219
0.00170355
0.00100836
0.000399376
0.0010076
0.00170256
1
0.999975
0.999329
1.00017
0.967745
1.00017
0.999329
0.999975
1
0.999988
0.999942
0.999289
0.999602
0.963726
0.999601
0.999288
0.999941
0.999988
0.999968
0.999742
0.999072
0.997358
0.952313
0.997357
0.999071
0.999741
0.999967
0.999776
0.999167
0.998442
0.991285
0.931578
0.991284
0.998441
0.999166
0.999775
0.999124
0.997777
0.995957
0.97767
0.899629
0.977669
0.995955
0.997775
0.999122
0.997033
0.993914
0.987893
0.951984
0.85525
0.951984
0.987891
0.993912
0.997031
0.990451
0.98352
0.968615
0.910504
0.798438
0.910504
0.968613
0.983517
0.990448
0.973938
0.960789
0.932744
0.851868
0.730615
0.851869
0.932742
0.960785
0.973934
0.941533
0.920577
0.877545
0.777671
0.654483
0.777673
0.877543
0.920573
0.941529
0.889498
0.860765
0.804026
0.691965
0.573595
0.691967
0.804024
0.860761
0.889493
0.818018
0.783128
0.716473
0.600119
0.491774
0.600121
0.716471
0.783124
0.818013
0.731099
0.692617
0.620969
0.507606
0.412641
0.507608
0.620968
0.692614
0.731094
0.635148
0.595795
0.523909
0.419112
0.339126
0.419115
0.523909
0.595791
0.635143
0.537295
0.499356
0.430869
0.337944
0.273078
0.337946
0.430868
0.499353
0.537291
0.443989
0.40916
0.346115
0.266681
0.217952
0.266682
0.346115
0.409157
0.443985
0.360834
0.329981
0.273202
0.203084
0.155563
0.203085
0.273202
0.329979
0.36083
0.287826
0.264461
0.208651
0.126339
0.0715854
0.12634
0.208651
0.26446
0.287823
0.226017
0.212148
0.155415
0.0709184
0.0301294
0.0709188
0.155415
0.212146
0.226015
0.17952
0.171473
0.118859
0.0453808
0.0176874
0.0453812
0.118859
0.171472
0.179518
0.145016
0.139562
0.0938557
0.0332972
0.0132302
0.0332971
0.0938557
0.139561
0.145014
0.118283
0.11387
0.0754208
0.0262647
0.0108891
0.0262645
0.0754211
0.113869
0.118282
0.0967115
0.0927769
0.0609464
0.0212925
0.00917684
0.0212923
0.060947
0.0927767
0.0967101
0.0789102
0.0753071
0.0492039
0.0173712
0.00773751
0.0173711
0.0492047
0.0753071
0.078909
0.0641107
0.0608235
0.0395658
0.0141535
0.00649347
0.0141535
0.0395666
0.0608236
0.0641097
0.0518163
0.0488518
0.0316445
0.0114874
0.0054246
0.0114875
0.0316454
0.048852
0.0518154
0.0416507
0.0390018
0.0251495
0.00928549
0.00452209
0.00928565
0.0251503
0.0390019
0.0416498
0.0333016
0.0309364
0.01984
0.00748669
0.00378423
0.00748692
0.0198407
0.0309366
0.0333009
0.0265026
0.0243618
0.0155121
0.0060479
0.00321668
0.00604818
0.0155127
0.0243619
0.0265019
0.0210295
0.0190223
0.0119884
0.0049389
0.00283034
0.00493924
0.011989
0.0190224
0.0210288
0.0166999
0.0147452
0.00919079
0.00415773
0.00264497
0.00415811
0.00919128
0.0147452
0.0166993
0.0134145
0.0112492
0.00616683
0.00308624
0.00219256
0.00308656
0.00616719
0.0112491
0.013414
0.0110799
0.009351
0.00510074
0.00256601
0.00186739
0.0025663
0.00510104
0.00935083
0.0110794
0.0091337
0.00843439
0.00531201
0.00208801
0.00115093
0.00208813
0.00531205
0.00843408
0.00913321
0.00584952
0.0059815
0.00470642
0.00186961
0.000439277
0.00186945
0.00470616
0.00598114
0.00584914
0.999989
1
0.999808
1.00112
0.98333
1.00112
0.999808
1
0.999989
0.999985
0.999989
0.999806
1.00101
0.981489
1.00101
0.999806
0.999988
0.999984
0.99996
0.999968
0.999637
1.00049
0.974645
1.00049
0.999637
0.999967
0.999959
0.999829
0.999775
0.999345
0.998545
0.961438
0.998545
0.999345
0.999775
0.999828
0.9994
0.999123
0.998653
0.992877
0.939661
0.992877
0.998653
0.999122
0.999398
0.997947
0.997033
0.995647
0.979376
0.906947
0.979375
0.995646
0.997031
0.997944
0.992973
0.990451
0.985624
0.952909
0.861528
0.952909
0.985623
0.990448
0.992969
0.979532
0.973937
0.962146
0.909302
0.80297
0.909302
0.962145
0.973934
0.979527
0.951587
0.941532
0.919853
0.847185
0.732543
0.847186
0.919851
0.941529
0.951581
0.904662
0.889496
0.856935
0.768606
0.653109
0.768607
0.856934
0.889493
0.904656
0.837932
0.818016
0.775788
0.678271
0.568588
0.678273
0.775787
0.818013
0.837926
0.754605
0.731097
0.681875
0.582053
0.483172
0.582055
0.681874
0.731094
0.754598
0.660827
0.635146
0.581912
0.485459
0.400386
0.485461
0.581912
0.635143
0.660822
0.564034
0.537293
0.482044
0.391962
0.321818
0.391964
0.482044
0.537291
0.564029
0.471427
0.443987
0.386957
0.304347
0.248666
0.304349
0.386958
0.443985
0.471423
0.388867
0.360832
0.298313
0.196688
0.108807
0.196689
0.298314
0.36083
0.388864
0.31973
0.287824
0.197985
0.0713557
0.0309765
0.0713563
0.197986
0.287823
0.319727
0.263284
0.226015
0.122096
0.0214862
0.0113103
0.0214865
0.122096
0.226015
0.263281
0.217361
0.179518
0.0832678
0.00836721
0.00687402
0.0083674
0.0832684
0.179518
0.217359
0.179689
0.145015
0.0630153
0.0050604
0.00501991
0.00506053
0.0630155
0.145014
0.179688
0.148374
0.118282
0.050457
0.00414286
0.00386847
0.00414296
0.050457
0.118282
0.148372
0.122106
0.0967104
0.0412928
0.00375367
0.00298404
0.00375375
0.0412928
0.0967102
0.122106
0.100019
0.0789092
0.0339491
0.0034405
0.00230078
0.00344055
0.0339491
0.0789091
0.100018
0.0814955
0.0641098
0.0278411
0.00311413
0.00177375
0.00311416
0.027841
0.0641098
0.0814951
0.066052
0.0518154
0.022706
0.00277068
0.00136998
0.00277069
0.022706
0.0518155
0.0660518
0.0532757
0.0416499
0.0183909
0.00242383
0.00106262
0.00242383
0.0183909
0.0416499
0.0532755
0.0428003
0.0333009
0.0147855
0.00209123
0.000832471
0.00209122
0.0147855
0.033301
0.0428002
0.0342948
0.0265019
0.011807
0.00179421
0.000669789
0.00179421
0.011807
0.026502
0.0342947
0.0274539
0.0210288
0.00940114
0.00156289
0.000577872
0.00156288
0.00940116
0.0210289
0.0274538
0.0219914
0.0166993
0.00756893
0.00145376
0.000588783
0.00145378
0.00756896
0.0166994
0.0219914
0.0176499
0.013414
0.0061926
0.00142638
0.000674519
0.00142643
0.00619265
0.013414
0.0176499
0.0140781
0.0110794
0.0054308
0.00130796
0.00055654
0.00130801
0.00543084
0.0110794
0.0140781
0.0106708