/*--------------------------------*- C++ -*----------------------------------*\
  =========                 |
  \\      /  F ield         | OpenFOAM: The Open Source CFD Toolbox
   \\    /   O peration     | Website:  https://openfoam.org
    \\  /    A nd           | Version:  6
     \\/     M anipulation  |
\*---------------------------------------------------------------------------*/
FoamFile
{
    version     2.0;
    format      ascii;
    class       volScalarField;
    location    "0.3";
    object      alpha_gas;
}
// * * * * * * * * * * * * * * * * * * * * * * * * * * * * * * * * * * * * * //

dimensions      [0 0 0 0 0 0 0];

internalField   nonuniform List<scalar> 
3029
(
-4.96255e-16
-5.94999e-16
-1.03062e-15
-1.55981e-15
-2.8918e-15
-1.55975e-15
-1.03057e-15
-5.94969e-16
-4.96233e-16
-2.99002e-15
-4.77327e-15
-1.13112e-14
-1.94388e-14
-3.56399e-14
-1.94381e-14
-1.13107e-14
-4.77302e-15
-2.98989e-15
-1.37938e-14
-3.02798e-14
-7.7534e-14
-1.63883e-13
-2.8151e-13
-1.63879e-13
-7.75313e-14
-3.02783e-14
-1.37933e-14
-1.11251e-13
-2.37524e-13
-5.57075e-13
-9.02994e-13
-1.29076e-12
-9.02986e-13
-5.57061e-13
-2.37515e-13
-1.11247e-13
-6.25432e-13
-1.25424e-12
-2.98618e-12
-5.64011e-12
-9.36988e-12
-5.63996e-12
-2.98609e-12
-1.25419e-12
-6.25414e-13
-4.10756e-12
-1.04229e-11
-3.85756e-11
-1.1066e-10
-2.11095e-10
-1.10656e-10
-3.85736e-11
-1.04223e-11
-4.10739e-12
-5.49151e-11
-1.42956e-10
-3.96855e-10
-5.20209e-10
-4.9915e-10
-5.20215e-10
-3.96847e-10
-1.42949e-10
-5.4913e-11
-2.55493e-10
-2.3068e-10
1.6872e-09
1.03727e-08
2.17992e-08
1.03723e-08
1.687e-09
-2.30709e-10
-2.55492e-10
2.01537e-09
4.46493e-09
-1.87632e-08
-1.87458e-07
-4.28074e-07
-1.8745e-07
-1.87598e-08
4.46511e-09
2.01534e-09
-3.93925e-08
-1.33852e-07
-1.14153e-07
1.62999e-06
4.25084e-06
1.6299e-06
-1.14182e-07
-1.33848e-07
-3.93911e-08
1.74915e-07
1.06946e-06
1.61785e-06
-1.28221e-05
-3.47281e-05
-1.28213e-05
1.61805e-06
1.06941e-06
1.74905e-07
-8.8195e-07
-8.09357e-06
-1.74459e-05
8.06732e-05
0.000230954
8.06689e-05
-1.74469e-05
-8.09316e-06
-8.8189e-07
3.79252e-07
4.29029e-05
0.000114658
-0.000488006
-0.00141459
-0.000487984
0.000114663
4.29007e-05
3.79051e-07
7.16427e-06
-0.000225355
-0.000747665
0.0026617
0.00815599
0.0026616
-0.000747682
-0.000225345
7.16492e-06
-0.000115162
0.000915551
0.00445856
-0.0139093
-0.0491171
-0.0139089
0.0044586
0.000915512
-0.000115163
0.000659888
-0.00254814
-0.028414
0.0546636
0.415278
0.0546622
-0.0284138
-0.00254803
0.000659881
-0.00234334
-0.00992279
0.119518
0.68422
0.999087
0.684218
0.119517
-0.00992271
-0.00234329
-0.00841171
0.00805453
0.340841
0.953398
1.02536
0.953396
0.340838
0.00805405
-0.00841159
-0.0123531
0.0330601
0.464703
1.02931
1.03383
1.02931
0.464698
0.033059
-0.0123529
-0.0131928
0.0524604
0.516431
1.04218
1.03589
1.04218
0.516425
0.0524586
-0.0131927
-0.0118931
0.065253
0.531368
1.03377
1.03506
1.03376
0.531362
0.0652508
-0.0118929
-0.00940941
0.0735182
0.528591
1.01589
1.03119
1.01588
0.528584
0.0735157
-0.00940931
-0.00634837
0.0789443
0.516115
0.990394
1.02202
0.990391
0.516108
0.0789417
-0.0063483
-0.00309219
0.0824103
0.496955
0.956218
1.00433
0.956215
0.496948
0.0824076
-0.00309216
8.30617e-05
0.0843265
0.472574
0.912364
0.97534
0.91236
0.472567
0.084324
8.30469e-05
0.00296548
0.0849611
0.444219
0.859032
0.933759
0.859028
0.444213
0.0849587
0.00296542
0.00541296
0.084606
0.413271
0.797644
0.880103
0.79764
0.413266
0.084604
0.00541284
0.00738522
0.0835944
0.381081
0.730385
0.816397
0.730382
0.381077
0.0835927
0.00738505
0.00897949
0.0821101
0.348214
0.659043
0.744918
0.659041
0.348211
0.0821087
0.00897927
0.0104274
0.0798756
0.314151
0.585651
0.669247
0.58565
0.314149
0.0798745
0.0104271
0.0115329
0.0746874
0.272887
0.499768
0.576288
0.499767
0.272885
0.0746866
0.0115326
0.0106184
0.0626318
0.232223
0.440627
0.518361
0.440627
0.232223
0.0626314
0.0106181
0.00725531
0.0399914
0.174505
0.385987
0.4855
0.385987
0.174504
0.0399912
0.00725496
0.00231719
0.0113036
0.0780542
0.247431
0.373049
0.247432
0.0780544
0.0113035
0.00231685
-5.95e-16
-6.20301e-16
-8.98566e-16
-1.34678e-15
-2.30027e-15
-1.34673e-15
-8.98524e-16
-6.20273e-16
-5.94976e-16
-4.77328e-15
-4.91552e-15
-8.35685e-15
-1.41679e-14
-2.45995e-14
-1.41674e-14
-8.35648e-15
-4.9153e-15
-4.77311e-15
-3.02798e-14
-3.11597e-14
-5.48946e-14
-1.06786e-13
-1.81885e-13
-1.06783e-13
-5.48927e-14
-3.11585e-14
-3.02789e-14
-2.37525e-13
-1.99871e-13
-3.29489e-13
-5.67607e-13
-8.57047e-13
-5.67599e-13
-3.2948e-13
-1.99864e-13
-2.37519e-13
-1.25424e-12
-9.48892e-13
-1.60853e-12
-3.19397e-12
-5.32537e-12
-3.19388e-12
-1.60848e-12
-9.4886e-13
-1.25421e-12
-1.0423e-11
-7.68157e-12
-1.79031e-11
-5.37837e-11
-1.09922e-10
-5.37817e-11
-1.79021e-11
-7.68122e-12
-1.04227e-11
-1.42957e-10
-9.72627e-11
-1.89851e-10
-3.52802e-10
-4.85472e-10
-3.528e-10
-1.89845e-10
-9.72591e-11
-1.42953e-10
-2.30675e-10
-1.56045e-10
4.42602e-10
4.11778e-09
1.11882e-08
4.11755e-09
4.42524e-10
-1.56051e-10
-2.30681e-10
4.46493e-09
2.85016e-09
-2.11192e-09
-6.01682e-08
-1.91078e-07
-6.0164e-08
-2.11089e-09
2.85018e-09
4.46497e-09
-1.33853e-07
-8.00993e-08
-1.2387e-07
3.07538e-07
1.62126e-06
3.07498e-07
-1.23875e-07
-8.00969e-08
-1.33851e-07
1.06947e-06
5.53366e-07
1.25709e-06
-1.46205e-06
-1.20983e-05
-1.46175e-06
1.2571e-06
5.53344e-07
1.06945e-06
-8.09362e-06
-3.57613e-06
-1.07762e-05
1.44806e-06
7.25014e-05
1.44642e-06
-1.07761e-05
-3.57595e-06
-8.09349e-06
4.29031e-05
1.35052e-05
6.22837e-05
1.27305e-05
-0.000421093
1.27381e-05
6.22827e-05
1.35046e-05
4.29024e-05
-0.000225356
-4.85782e-05
-0.000347513
-0.000236799
0.00223434
-0.000236829
-0.000347507
-4.85758e-05
-0.000225353
0.000915551
5.23377e-05
0.00163114
0.00220708
-0.011372
0.00220718
0.0016311
5.23333e-05
0.000915539
-0.00254813
0.00044288
-0.00684943
-0.0232668
0.0411888
-0.0232669
-0.00684928
0.000442876
-0.0025481
-0.00992279
-0.00473656
0.00904292
0.222657
0.592531
0.222656
0.00904257
-0.00473646
-0.00992276
0.00805445
-0.00791442
0.0753259
0.504554
0.875297
0.504551
0.0753244
-0.00791432
0.00805428
0.0330599
-0.00440891
0.13451
0.641913
0.955047
0.641909
0.134508
-0.00440892
0.0330595
0.05246
0.00318
0.17179
0.692396
0.966887
0.692391
0.171787
0.00317982
0.0524594
0.0652524
0.0122644
0.192997
0.702726
0.955626
0.702721
0.192993
0.0122641
0.0652517
0.0735174
0.0215256
0.204772
0.694416
0.934053
0.694411
0.204767
0.0215251
0.0735166
0.0789433
0.0303065
0.210695
0.675404
0.904606
0.675398
0.21069
0.0303058
0.0789424
0.082409
0.0381891
0.212295
0.647985
0.866555
0.64798
0.21229
0.0381882
0.0824081
0.084325
0.0448826
0.210174
0.612984
0.819098
0.612979
0.210169
0.0448816
0.0843241
0.0849593
0.0502507
0.204746
0.570994
0.762108
0.570989
0.204742
0.0502497
0.0849584
0.0846041
0.054362
0.196447
0.522412
0.695622
0.522409
0.196444
0.054361
0.0846033
0.0835923
0.0575612
0.185669
0.466903
0.618915
0.4669
0.185666
0.0575603
0.0835915
0.0821079
0.0602806
0.171702
0.401515
0.528089
0.401513
0.1717
0.0602797
0.0821072
0.0798733
0.0639098
0.1555
0.323585
0.419537
0.323584
0.155498
0.0639092
0.0798726
0.0746852
0.0638092
0.11016
0.195775
0.247667
0.195774
0.110159
0.0638087
0.0746846
0.0626299
0.0601111
0.0953476
0.156324
0.194458
0.156324
0.0953474
0.0601108
0.0626294
0.03999
0.0428779
0.103191
0.223039
0.28739
0.223039
0.103191
0.0428777
0.0399895
0.011303
0.00999382
0.0576587
0.212539
0.332802
0.212539
0.0576588
0.00999364
0.0113026
-1.03063e-15
-8.98568e-16
-8.72428e-16
-1.0456e-15
-1.56822e-15
-1.04557e-15
-8.72395e-16
-8.98536e-16
-1.03059e-15
-1.13112e-14
-8.35686e-15
-7.34832e-15
-9.26512e-15
-1.45254e-14
-9.26488e-15
-7.3481e-15
-8.35663e-15
-1.13109e-14
-7.75341e-14
-5.48947e-14
-4.66523e-14
-6.41227e-14
-1.03283e-13
-6.41216e-14
-4.66515e-14
-5.48936e-14
-7.75324e-14
-5.57075e-13
-3.29489e-13
-2.58277e-13
-3.48161e-13
-5.40881e-13
-3.48158e-13
-2.58275e-13
-3.29483e-13
-5.57064e-13
-2.98618e-12
-1.60853e-12
-1.19902e-12
-1.75769e-12
-2.85523e-12
-1.75767e-12
-1.19902e-12
-1.6085e-12
-2.98611e-12
-3.85758e-11
-1.79032e-11
-1.03479e-11
-1.93781e-11
-3.92231e-11
-1.93776e-11
-1.03478e-11
-1.79029e-11
-3.85747e-11
-3.96855e-10
-1.89852e-10
-1.03441e-10
-1.71114e-10
-3.02913e-10
-1.71112e-10
-1.03441e-10
-1.8985e-10
-3.9685e-10
1.68722e-09
4.42615e-10
2.51293e-11
5.89909e-10
2.39822e-09
5.89854e-10
2.51164e-11
4.42608e-10
1.68715e-09
-1.87634e-08
-2.11204e-09
6.45902e-10
-5.72074e-09
-3.00202e-08
-5.72005e-09
6.46028e-10
-2.11187e-09
-1.87623e-08
-1.14151e-07
-1.2387e-07
-6.88502e-08
-8.04978e-08
3.4921e-08
-8.05013e-08
-6.88507e-08
-1.2387e-07
-1.14159e-07
1.61783e-06
1.25709e-06
5.42192e-07
9.53677e-07
6.59548e-07
9.53683e-07
5.4219e-07
1.25709e-06
1.61789e-06
-1.74458e-05
-1.07762e-05
-3.8679e-06
-9.12122e-06
-1.19968e-05
-9.12113e-06
-3.86786e-06
-1.07762e-05
-1.74461e-05
0.000114658
6.22838e-05
1.63999e-05
5.5104e-05
9.16421e-05
5.51031e-05
1.63996e-05
6.22837e-05
0.000114659
-0.000747666
-0.000347514
-6.59408e-05
-0.000316135
-0.000632828
-0.000316129
-6.59397e-05
-0.000347513
-0.000747669
0.00445856
0.00163114
0.000146566
0.00147972
0.00379204
0.00147969
0.000146563
0.00163113
0.00445857
-0.028414
-0.00684942
-7.93912e-05
-0.00597592
-0.022967
-0.0059758
-7.93848e-05
-0.0068494
-0.0284139
0.119518
0.00904287
-0.0023322
0.00413684
0.0786219
0.00413665
-0.00233218
0.00904282
0.119517
0.340841
0.0753256
0.000521036
0.0625333
0.257599
0.0625324
0.000520979
0.0753254
0.340839
0.464702
0.13451
0.00919539
0.116342
0.36017
0.11634
0.0091952
0.134509
0.4647
0.51643
0.171789
0.020443
0.150572
0.402318
0.15057
0.0204427
0.171789
0.516427
0.531367
0.192995
0.0322508
0.169952
0.412964
0.16995
0.0322504
0.192995
0.531364
0.528589
0.20477
0.0436446
0.180381
0.408156
0.180378
0.043644
0.204769
0.528586
0.516113
0.210692
0.0540642
0.185045
0.394733
0.185042
0.0540634
0.210692
0.51611
0.496952
0.212292
0.063038
0.185494
0.375447
0.185491
0.0630372
0.212291
0.496949
0.472571
0.210171
0.0701955
0.182192
0.351347
0.182189
0.0701945
0.21017
0.472568
0.444215
0.204742
0.0753301
0.175178
0.322657
0.175175
0.0753291
0.204742
0.444213
0.413267
0.196443
0.0784047
0.164198
0.288883
0.164195
0.0784037
0.196442
0.413265
0.381076
0.185665
0.0794555
0.148355
0.248266
0.148354
0.0794547
0.185664
0.381075
0.348209
0.171698
0.0779336
0.125179
0.196644
0.125178
0.0779329
0.171697
0.348208
0.314147
0.155496
0.0721382
0.0875529
0.124594
0.0875525
0.0721378
0.155495
0.314146
0.272883
0.110157
0.0200892
0.0116275
0.0112895
0.0116276
0.0200893
0.110157
0.272882
0.232219
0.0953453
0.0953454
0.232219
0.174501
0.103188
0.0748848
0.141225
0.210682
0.141225
0.0748849
0.103188
0.174501
0.0780521
0.0576567
0.054477
0.153022
0.258658
0.153022
0.054477
0.0576566
0.078052
0.0464102
0.143374
0.254717
0.143375
0.0464102
0.0432955
0.133934
0.241386
0.133934
0.0432955
0.0415095
0.126221
0.227675
0.126221
0.0415096
0.040156
0.119491
0.214629
0.119491
0.0401561
0.0389024
0.113267
0.202267
0.113267
0.0389025
0.0376649
0.10736
0.190506
0.107359
0.0376651
0.0364206
0.1017
0.179299
0.101699
0.0364208
0.0351664
0.0962626
0.168617
0.096262
0.0351666
0.0339106
0.0910536
0.158467
0.0910529
0.0339108
0.0326207
0.0859723
0.148664
0.0859714
0.0326209
0.0314893
0.0815558
0.140174
0.0815547
0.0314895
0.0293973
0.0745335
0.127048
0.0745322
0.0293974
-1.55981e-15
-1.34678e-15
-1.0456e-15
-8.32536e-16
-9.01227e-16
-8.3252e-16
-1.04558e-15
-1.34674e-15
-1.55977e-15
-1.94388e-14
-1.41679e-14
-9.26516e-15
-6.52149e-15
-7.06132e-15
-6.52147e-15
-9.26508e-15
-1.41676e-14
-1.94383e-14
-1.63882e-13
-1.06786e-13
-6.4123e-14
-4.22352e-14
-4.64692e-14
-4.22356e-14
-6.41231e-14
-1.06785e-13
-1.6388e-13
-9.02992e-13
-5.67606e-13
-3.48163e-13
-2.24001e-13
-2.46249e-13
-2.24005e-13
-3.48165e-13
-5.67599e-13
-9.02979e-13
-5.64009e-12
-3.19396e-12
-1.7577e-12
-1.04415e-12
-1.14988e-12
-1.04417e-12
-1.75772e-12
-3.19392e-12
-5.63998e-12
-1.1066e-10
-5.37839e-11
-1.93783e-11
-8.44892e-12
-1.0283e-11
-8.44917e-12
-1.93787e-11
-5.37834e-11
-1.10658e-10
-5.20208e-10
-3.52802e-10
-1.71115e-10
-8.22524e-11
-1.01313e-10
-8.22554e-11
-1.71118e-10
-3.52798e-10
-5.20207e-10
1.03727e-08
4.11781e-09
5.89928e-10
-4.268e-11
1.01985e-10
-4.2683e-11
5.89961e-10
4.11779e-09
1.03725e-08
-1.87459e-07
-6.01687e-08
-5.72093e-09
6.37791e-10
-1.81553e-10
6.37871e-10
-5.72128e-09
-6.01682e-08
-1.87455e-07
1.62999e-06
3.07542e-07
-8.04972e-08
-5.15024e-08
-6.46765e-08
-5.15047e-08
-8.04963e-08
3.07539e-07
1.62996e-06
-1.28221e-05
-1.46207e-06
9.53677e-07
3.62042e-07
5.79792e-07
3.62057e-07
9.53681e-07
-1.46205e-06
-1.28218e-05
8.06731e-05
1.44814e-06
-9.12124e-06
-2.4884e-06
-4.70491e-06
-2.48849e-06
-9.12132e-06
1.44807e-06
8.06715e-05
-0.000488005
1.27305e-05
5.5104e-05
8.96712e-06
2.50598e-05
8.96743e-06
5.51046e-05
1.27308e-05
-0.000487996
0.00266169
-0.000236801
-0.000316135
-3.01383e-05
-0.000128943
-3.01391e-05
-0.000316139
-0.000236802
0.00266165
-0.0139092
0.00220709
0.00147972
-8.729e-06
0.000489708
-8.72913e-06
0.00147973
0.0022071
-0.013909
0.0546632
-0.0232668
-0.0059759
0.000614364
-0.00108738
0.000614376
-0.00597594
-0.0232668
0.0546624
0.68422
0.222657
0.00413679
-0.00476938
-0.00832872
-0.00476943
0.00413683
0.222657
0.684218
0.953397
0.504553
0.062533
-0.00961777
-0.00156409
-0.0096179
0.0625333
0.504552
0.953396
1.02931
0.641912
0.116341
-0.00840855
0.0113508
-0.00840871
0.116342
0.641911
1.02931
1.04218
0.692394
0.150571
-0.003054
0.0226734
-0.00305416
0.150572
0.692393
1.04218
1.03377
0.702725
0.169951
0.00402387
0.0310805
0.00402374
0.169952
0.702723
1.03376
1.01589
0.694414
0.180379
0.0114869
0.0372479
0.0114868
0.18038
0.694413
1.01588
0.990394
0.675402
0.185042
0.0186542
0.0417848
0.0186541
0.185043
0.6754
0.990391
0.956218
0.647983
0.185491
0.0250385
0.0449516
0.0250383
0.185492
0.647981
0.956215
0.912363
0.612981
0.182188
0.0302888
0.0467512
0.0302886
0.182189
0.61298
0.912361
0.859032
0.57099
0.175174
0.0340883
0.0470203
0.0340881
0.175174
0.570989
0.859029
0.797643
0.522409
0.164194
0.0361001
0.0454582
0.0360999
0.164194
0.522408
0.797641
0.730384
0.4669
0.148351
0.0358307
0.0415303
0.0358305
0.148352
0.466899
0.730383
0.659043
0.401511
0.125176
0.0323611
0.0343214
0.0323611
0.125176
0.401511
0.659042
0.585651
0.323581
0.08755
0.0233674
0.0224513
0.0233674
0.0875501
0.323582
0.58565
0.499767
0.195772
0.0116264
0.011087
0.00965146
0.011087
0.0116264
0.195772
0.499767
0.440626
0.156322
0.156322
0.440626
0.385985
0.223036
0.141223
0.108749
0.142922
0.10875
0.141223
0.223037
0.385986
0.247429
0.212536
0.153019
0.117644
0.159228
0.117644
0.15302
0.212537
0.24743
0.143373
0.118292
0.160819
0.118292
0.143373
0.133932
0.114872
0.155596
0.114872
0.133933
0.12622
0.110313
0.148565
0.110313
0.12622
0.119489
0.105526
0.141209
0.105526
0.119489
0.113266
0.10076
0.133964
0.10076
0.113266
0.107358
0.0960855
0.126943
0.0960853
0.107359
0.101699
0.0915262
0.120178
0.0915259
0.101699
0.0962615
0.0870896
0.113671
0.0870892
0.0962619
0.0910526
0.082794
0.107441
0.0827934
0.091053
0.0859713
0.0785559
0.101368
0.0785551
0.0859718
0.0815549
0.0748599
0.0961001
0.074859
0.0815553
0.0745327
0.0688212
0.0877061
0.0688201
0.0745331
-2.89178e-15
-2.30026e-15
-1.56822e-15
-9.01232e-16
-6.17809e-16
-9.01242e-16
-1.56822e-15
-2.30023e-15
-2.89174e-15
-3.56397e-14
-2.45994e-14
-1.45254e-14
-7.06139e-15
-4.42694e-15
-7.06155e-15
-1.45255e-14
-2.45992e-14
-3.56393e-14
-2.81509e-13
-1.81884e-13
-1.03284e-13
-4.64698e-14
-2.84256e-14
-4.64713e-14
-1.03285e-13
-1.81883e-13
-2.81506e-13
-1.29076e-12
-8.57043e-13
-5.40883e-13
-2.46253e-13
-1.53684e-13
-2.46262e-13
-5.40887e-13
-8.57035e-13
-1.29074e-12
-9.3698e-12
-5.32533e-12
-2.85524e-12
-1.1499e-12
-7.06264e-13
-1.14995e-12
-2.85528e-12
-5.32531e-12
-9.36968e-12
-2.11094e-10
-1.09921e-10
-3.92234e-11
-1.02832e-11
-5.21434e-12
-1.02839e-11
-3.92244e-11
-1.09921e-10
-2.11093e-10
-4.99155e-10
-4.85473e-10
-3.02915e-10
-1.01315e-10
-5.42252e-11
-1.0132e-10
-3.02917e-10
-4.85467e-10
-4.99154e-10
2.17992e-08
1.11883e-08
2.39825e-09
1.01993e-10
-8.03103e-11
1.02024e-10
2.39836e-09
1.11883e-08
2.17992e-08
-4.28074e-07
-1.91078e-07
-3.00206e-08
-1.81594e-10
9.25626e-10
-1.81748e-10
-3.00222e-08
-1.91079e-07
-4.28072e-07
4.25083e-06
1.62126e-06
3.49233e-08
-6.46771e-08
-3.33577e-08
-6.46803e-08
3.49356e-08
1.62127e-06
4.25081e-06
-3.47281e-05
-1.20983e-05
6.59538e-07
5.79798e-07
1.92717e-07
5.79836e-07
6.59466e-07
-1.20983e-05
-3.47279e-05
0.000230954
7.25013e-05
-1.19968e-05
-4.70495e-06
-1.07471e-06
-4.70526e-06
-1.19964e-05
7.25018e-05
0.000230953
-0.00141458
-0.000421092
9.16421e-05
2.50599e-05
1.87538e-06
2.50616e-05
9.16409e-05
-0.000421094
-0.00141458
0.00815598
0.00223434
-0.000632828
-0.000128943
2.67876e-06
-0.000128951
-0.000632825
0.00223434
0.00815596
-0.0491171
-0.011372
0.00379204
0.000489708
-9.36775e-05
0.000489733
0.00379204
-0.011372
-0.0491169
0.415277
0.0411885
-0.022967
-0.00108738
0.00055992
-0.00108743
-0.0229671
0.0411885
0.415276
0.999087
0.59253
0.0786217
-0.00832871
-0.00177294
-0.00832883
0.078622
0.59253
0.999087
1.02536
0.875296
0.257598
-0.00156414
-0.00717566
-0.00156405
0.257599
0.875296
1.02536
1.03383
0.955047
0.360169
0.0113507
-0.010818
0.0113511
0.36017
0.955046
1.03383
1.03589
0.966888
0.402317
0.0226731
-0.0114497
0.0226738
0.402319
0.966887
1.03589
1.03506
0.955626
0.412963
0.03108
-0.00983459
0.031081
0.412965
0.955625
1.03506
1.03119
0.934053
0.408155
0.0372472
-0.00691333
0.0372483
0.408157
0.934052
1.03119
1.02202
0.904606
0.394732
0.0417838
-0.0033262
0.0417851
0.394734
0.904605
1.02202
1.00433
0.866556
0.375445
0.0449505
0.000372194
0.0449517
0.375447
0.866555
1.00433
0.975342
0.8191
0.351345
0.04675
0.00386834
0.046751
0.351347
0.819099
0.975341
0.933762
0.76211
0.322655
0.0470191
0.00695594
0.0470199
0.322656
0.762109
0.93376
0.880107
0.695623
0.288881
0.045457
0.00947736
0.0454576
0.288882
0.695623
0.880105
0.816401
0.618917
0.248264
0.041529
0.0112909
0.0415295
0.248265
0.618916
0.8164
0.744923
0.52809
0.196642
0.0343203
0.0122076
0.0343205
0.196642
0.52809
0.744922
0.669252
0.419538
0.124592
0.0224504
0.0116932
0.0224504
0.124593
0.419538
0.669252
0.576292
0.247667
0.0112882
0.00965111
0.00800942
0.00965102
0.0112881
0.247667
0.576292
0.518365
0.194457
0.194458
0.518366
0.485504
0.287391
0.210682
0.142922
0.107533
0.142922
0.210682
0.287392
0.485505
0.373052
0.332805
0.25866
0.159228
0.110954
0.159228
0.25866
0.332806
0.373053
0.254718
0.16082
0.111043
0.16082
0.254718
0.241388
0.155597
0.108471
0.155597
0.241388
0.227677
0.148566
0.104803
0.148566
0.227677
0.21463
0.14121
0.100754
0.14121
0.21463
0.202268
0.133964
0.0966164
0.133965
0.202269
0.190507
0.126944
0.0924954
0.126945
0.190508
0.1793
0.120178
0.0884319
0.120179
0.179301
0.168618
0.113672
0.0844421
0.113673
0.168618
0.158468
0.107441
0.080549
0.107443
0.158468
0.148665
0.101368
0.0766735
0.10137
0.148666
0.140174
0.0961005
0.0732885
0.0961022
0.140175
0.127048
0.0877064
0.0676033
0.0877082
0.127049
-1.55974e-15
-1.34671e-15
-1.04556e-15
-8.3252e-16
-9.01245e-16
-8.32524e-16
-1.04556e-15
-1.34671e-15
-1.55973e-15
-1.9438e-14
-1.41674e-14
-9.26487e-15
-6.5215e-15
-7.06159e-15
-6.52154e-15
-9.26493e-15
-1.41673e-14
-1.94379e-14
-1.63878e-13
-1.06783e-13
-6.41218e-14
-4.2236e-14
-4.64716e-14
-4.22365e-14
-6.41224e-14
-1.06783e-13
-1.63878e-13
-9.02983e-13
-5.67597e-13
-3.4816e-13
-2.24008e-13
-2.46263e-13
-2.24011e-13
-3.48163e-13
-5.67594e-13
-9.02976e-13
-5.63991e-12
-3.19386e-12
-1.75768e-12
-1.04418e-12
-1.14995e-12
-1.04421e-12
-1.7577e-12
-3.19386e-12
-5.63988e-12
-1.10656e-10
-5.37815e-11
-1.93777e-11
-8.44927e-12
-1.02839e-11
-8.44947e-12
-1.93782e-11
-5.37819e-11
-1.10656e-10
-5.20218e-10
-3.528e-10
-1.71113e-10
-8.22565e-11
-1.01321e-10
-8.22586e-11
-1.71116e-10
-3.52799e-10
-5.20215e-10
1.03723e-08
4.11756e-09
5.89863e-10
-4.26822e-11
1.02027e-10
-4.26812e-11
5.89911e-10
4.11763e-09
1.03723e-08
-1.87449e-07
-6.01639e-08
-5.72011e-09
6.37885e-10
-1.81759e-10
6.37914e-10
-5.72068e-09
-6.01653e-08
-1.8745e-07
1.62989e-06
3.07496e-07
-8.05014e-08
-5.15052e-08
-6.46804e-08
-5.15066e-08
-8.04992e-08
3.07511e-07
1.6299e-06
-1.28213e-05
-1.46173e-06
9.53686e-07
3.6206e-07
5.79837e-07
3.62071e-07
9.53686e-07
-1.46184e-06
-1.28214e-05
8.06686e-05
1.44635e-06
-9.12115e-06
-2.48851e-06
-4.70526e-06
-2.48858e-06
-9.12124e-06
1.44696e-06
8.06691e-05
-0.000487982
1.27385e-05
5.51032e-05
8.96746e-06
2.50615e-05
8.96773e-06
5.51039e-05
1.27357e-05
-0.000487984
0.00266159
-0.000236832
-0.00031613
-3.01391e-05
-0.00012895
-3.01399e-05
-0.000316134
-0.000236821
0.0026616
-0.0139088
0.00220719
0.00147969
-8.72928e-06
0.00048973
-8.72868e-06
0.00147971
0.00220716
-0.0139088
0.0546619
-0.0232669
-0.00597579
0.000614374
-0.00108742
0.000614382
-0.00597587
-0.0232669
0.0546618
0.684217
0.222655
0.00413662
-0.00476941
-0.00832881
-0.00476945
0.00413672
0.222656
0.684217
0.953396
0.504551
0.0625323
-0.00961785
-0.0015641
-0.00961793
0.0625328
0.504551
0.953395
1.02931
0.641909
0.11634
-0.00840868
0.0113509
-0.00840876
0.116341
0.641909
1.02931
1.04218
0.692392
0.15057
-0.00305415
0.0226735
-0.00305421
0.150571
0.692392
1.04218
1.03377
0.702722
0.16995
0.00402369
0.0310805
0.00402367
0.169951
0.702723
1.03376
1.01588
0.694412
0.180378
0.0114867
0.0372477
0.0114867
0.18038
0.694413
1.01588
0.990393
0.675401
0.185042
0.018654
0.0417842
0.018654
0.185044
0.675401
0.990392
0.956217
0.647983
0.185491
0.0250382
0.0449507
0.0250382
0.185493
0.647983
0.956216
0.912364
0.612982
0.182189
0.0302885
0.04675
0.0302885
0.182191
0.612983
0.912363
0.859033
0.570993
0.175175
0.0340879
0.0470189
0.0340879
0.175177
0.570994
0.859032
0.797646
0.522413
0.164196
0.0360997
0.0454565
0.0360996
0.164197
0.522413
0.797645
0.730388
0.466905
0.148354
0.0358302
0.0415284
0.0358301
0.148355
0.466905
0.730388
0.659048
0.401517
0.125178
0.0323606
0.0343195
0.0323605
0.125179
0.401518
0.659048
0.585657
0.323587
0.0875522
0.0233669
0.0224497
0.0233666
0.0875524
0.323588
0.585657
0.499774
0.195776
0.0116267
0.0110866
0.00965071
0.0110864
0.0116265
0.195776
0.499774
0.440633
0.156325
0.156326
0.440634
0.385993
0.223042
0.141227
0.108751
0.142922
0.108751
0.141227
0.223042
0.385993
0.247437
0.212543
0.153025
0.117646
0.159228
0.117646
0.153024
0.212543
0.247437
0.143378
0.118294
0.16082
0.118294
0.143377
0.133937
0.114874
0.155597
0.114874
0.133937
0.126224
0.110315
0.148566
0.110315
0.126224
0.119493
0.105528
0.14121
0.105528
0.119493
0.11327
0.100762
0.133965
0.100762
0.11327
0.107362
0.0960871
0.126945
0.0960876
0.107362
0.101702
0.0915276
0.120179
0.0915283
0.101702
0.096264
0.0870907
0.113673
0.0870918
0.0962645
0.0910548
0.0827949
0.107443
0.0827963
0.0910554
0.0859732
0.0785565
0.10137
0.0785581
0.085974
0.0815564
0.0748604
0.0961024
0.0748622
0.0815574
0.0745337
0.0688213
0.0877084
0.0688234
0.0745349
-1.03057e-15
-8.98518e-16
-8.7239e-16
-1.04558e-15
-1.56822e-15
-1.04557e-15
-8.7238e-16
-8.9851e-16
-1.03056e-15
-1.13107e-14
-8.35645e-15
-7.34808e-15
-9.26506e-15
-1.45255e-14
-9.26496e-15
-7.34803e-15
-8.35642e-15
-1.13106e-14
-7.75311e-14
-5.48926e-14
-4.66515e-14
-6.41232e-14
-1.03285e-13
-6.41226e-14
-4.66513e-14
-5.48925e-14
-7.75309e-14
-5.57061e-13
-3.2948e-13
-2.58276e-13
-3.48165e-13
-5.40888e-13
-3.48164e-13
-2.58276e-13
-3.29479e-13
-5.57059e-13
-2.98607e-12
-1.60848e-12
-1.19903e-12
-1.75772e-12
-2.85528e-12
-1.7577e-12
-1.19903e-12
-1.60848e-12
-2.98607e-12
-3.85734e-11
-1.79021e-11
-1.03478e-11
-1.93787e-11
-3.92245e-11
-1.93783e-11
-1.03478e-11
-1.79022e-11
-3.85735e-11
-3.96848e-10
-1.89846e-10
-1.03442e-10
-1.71118e-10
-3.02918e-10
-1.71116e-10
-1.03442e-10
-1.89847e-10
-3.96847e-10
1.68699e-09
4.42524e-10
2.51142e-11
5.89957e-10
2.39837e-09
5.89918e-10
2.51113e-11
4.42549e-10
1.68703e-09
-1.87596e-08
-2.11083e-09
6.46063e-10
-5.7212e-09
-3.00222e-08
-5.72073e-09
6.46095e-10
-2.11109e-09
-1.87601e-08
-1.14184e-07
-1.23875e-07
-6.88511e-08
-8.04969e-08
3.49355e-08
-8.04991e-08
-6.88512e-08
-1.23874e-07
-1.14178e-07
1.61807e-06
1.2571e-06
5.42192e-07
9.53684e-07
6.5947e-07
9.53686e-07
5.42192e-07
1.2571e-06
1.61803e-06
-1.7447e-05
-1.07761e-05
-3.86787e-06
-9.12132e-06
-1.19965e-05
-9.12124e-06
-3.86786e-06
-1.07761e-05
-1.74468e-05
0.000114663
6.22829e-05
1.63996e-05
5.51046e-05
9.16411e-05
5.51039e-05
1.63995e-05
6.22832e-05
0.000114662
-0.000747683
-0.000347507
-6.59396e-05
-0.000316138
-0.000632826
-0.000316134
-6.59392e-05
-0.000347509
-0.00074768
0.0044586
0.00163111
0.000146563
0.00147973
0.00379204
0.0014797
0.000146561
0.00163112
0.00445859
-0.0284139
-0.00684928
-7.93836e-05
-0.00597593
-0.0229671
-0.00597584
-7.93806e-05
-0.00684932
-0.0284139
0.119516
0.00904254
-0.00233218
0.0041368
0.0786218
0.00413667
-0.00233217
0.00904263
0.119516
0.340838
0.0753244
0.000520975
0.0625332
0.257599
0.0625325
0.000520958
0.0753248
0.340838
0.464698
0.134508
0.00919521
0.116342
0.36017
0.11634
0.00919515
0.134508
0.464699
0.516426
0.171787
0.0204427
0.150572
0.402318
0.15057
0.0204426
0.171788
0.516426
0.531363
0.192993
0.0322504
0.169952
0.412964
0.16995
0.0322503
0.192994
0.531363
0.528586
0.204768
0.0436441
0.18038
0.408156
0.180378
0.043644
0.204769
0.528586
0.516111
0.210691
0.0540637
0.185044
0.394732
0.185041
0.0540635
0.210692
0.516111
0.496951
0.212292
0.0630376
0.185493
0.375446
0.18549
0.0630374
0.212293
0.496951
0.472571
0.210171
0.0701951
0.18219
0.351346
0.182188
0.0701949
0.210172
0.472571
0.444217
0.204744
0.0753299
0.175175
0.322654
0.175174
0.0753297
0.204745
0.444218
0.413271
0.196446
0.0784047
0.164195
0.28888
0.164194
0.0784046
0.196447
0.413271
0.381082
0.185669
0.0794558
0.148353
0.248263
0.148352
0.0794557
0.18567
0.381082
0.348216
0.171702
0.0779341
0.125176
0.19664
0.125176
0.077934
0.171703
0.348217
0.314154
0.155501
0.0721386
0.0875503
0.124591
0.08755
0.0721386
0.155502
0.314155
0.272891
0.110161
0.0200888
0.0116258
0.0112872
0.0116257
0.0200886
0.110161
0.272891
0.232227
0.0953491
0.095349
0.232228
0.174508
0.103193
0.0748868
0.141225
0.210682
0.141225
0.0748865
0.103193
0.174508
0.0780566
0.0576605
0.0544787
0.153022
0.25866
0.153022
0.0544783
0.05766
0.0780562
0.0464118
0.143376
0.254719
0.143375
0.0464114
0.0432971
0.133935
0.241388
0.133935
0.0432967
0.0415111
0.126222
0.227677
0.126222
0.0415106
0.0401575
0.119492
0.214631
0.119491
0.0401571
0.0389039
0.113269
0.202269
0.113268
0.0389034
0.0376664
0.107361
0.190508
0.10736
0.0376659
0.0364221
0.101701
0.179301
0.1017
0.0364216
0.0351678
0.0962638
0.168619
0.0962633
0.0351673
0.033912
0.0910548
0.158469
0.0910543
0.0339115
0.032622
0.0859734
0.148666
0.0859729
0.0326216
0.0314905
0.0815569
0.140176
0.0815564
0.0314901
0.0293983
0.0745345
0.12705
0.0745341
0.029398
-5.94966e-16
-6.20269e-16
-8.98531e-16
-1.34674e-15
-2.30023e-15
-1.34671e-15
-8.98512e-16
-6.20258e-16
-5.94958e-16
-4.77301e-15
-4.91529e-15
-8.3566e-15
-1.41676e-14
-2.45992e-14
-1.41674e-14
-8.35643e-15
-4.91521e-15
-4.77297e-15
-3.02783e-14
-3.11585e-14
-5.48935e-14
-1.06784e-13
-1.81883e-13
-1.06783e-13
-5.48926e-14
-3.11581e-14
-3.02782e-14
-2.37515e-13
-1.99864e-13
-3.29483e-13
-5.67599e-13
-8.57035e-13
-5.67595e-13
-3.29479e-13
-1.99862e-13
-2.37515e-13
-1.25419e-12
-9.4886e-13
-1.6085e-12
-3.19391e-12
-5.3253e-12
-3.19386e-12
-1.60848e-12
-9.48851e-13
-1.25419e-12
-1.04223e-11
-7.68119e-12
-1.79028e-11
-5.37832e-11
-1.09921e-10
-5.37821e-11
-1.79022e-11
-7.68108e-12
-1.04223e-11
-1.42949e-10
-9.72592e-11
-1.8985e-10
-3.528e-10
-4.85469e-10
-3.52799e-10
-1.89847e-10
-9.72582e-11
-1.4295e-10
-2.30713e-10
-1.56055e-10
4.42597e-10
4.11778e-09
1.11883e-08
4.11765e-09
4.42552e-10
-1.56056e-10
-2.30707e-10
4.46518e-09
2.85022e-09
-2.11171e-09
-6.01679e-08
-1.91079e-07
-6.01655e-08
-2.11111e-09
2.85023e-09
4.46515e-09
-1.33849e-07
-8.00971e-08
-1.23871e-07
3.07535e-07
1.62127e-06
3.07512e-07
-1.23874e-07
-8.00964e-08
-1.33849e-07
1.06942e-06
5.53344e-07
1.2571e-06
-1.46202e-06
-1.20983e-05
-1.46184e-06
1.2571e-06
5.53337e-07
1.06942e-06
-8.09319e-06
-3.57595e-06
-1.07762e-05
1.44787e-06
7.25017e-05
1.44691e-06
-1.07761e-05
-3.57589e-06
-8.09325e-06
4.29008e-05
1.35045e-05
6.22838e-05
1.27317e-05
-0.000421093
1.27362e-05
6.22832e-05
1.35043e-05
4.29012e-05
-0.000225345
-4.85756e-05
-0.000347513
-0.000236806
0.00223434
-0.000236824
-0.000347509
-4.85749e-05
-0.000225347
0.000915513
5.23325e-05
0.00163113
0.00220712
-0.011372
0.00220717
0.00163111
5.23309e-05
0.000915518
-0.00254803
0.000442879
-0.0068494
-0.0232669
0.0411883
-0.0232669
-0.0068493
0.00044288
-0.00254804
-0.00992273
-0.00473647
0.00904278
0.222656
0.59253
0.222655
0.00904257
-0.00473644
-0.00992274
0.00805403
-0.00791435
0.0753254
0.504552
0.875296
0.504551
0.0753245
-0.00791431
0.00805407
0.033059
-0.00440895
0.134509
0.641911
0.955046
0.641909
0.134508
-0.00440895
0.0330591
0.0524588
0.0031798
0.171789
0.692394
0.966887
0.692391
0.171787
0.00317974
0.052459
0.0652511
0.0122641
0.192995
0.702724
0.955626
0.702721
0.192993
0.012264
0.0652514
0.0735162
0.0215252
0.20477
0.694414
0.934052
0.694411
0.204767
0.021525
0.0735165
0.0789423
0.030306
0.210693
0.675402
0.904606
0.675399
0.21069
0.0303058
0.0789427
0.0824084
0.0381886
0.212293
0.647984
0.866556
0.647981
0.21229
0.0381884
0.0824088
0.084325
0.0448822
0.210172
0.612983
0.819099
0.61298
0.21017
0.044882
0.0843253
0.0849599
0.0502504
0.204744
0.570993
0.762109
0.57099
0.204742
0.0502503
0.0849602
0.0846053
0.054362
0.196446
0.522412
0.695623
0.522409
0.196444
0.0543618
0.0846056
0.0835942
0.0575615
0.185668
0.466903
0.618917
0.466901
0.185666
0.0575613
0.0835944
0.0821104
0.0602812
0.1717
0.401515
0.52809
0.401514
0.171699
0.0602811
0.0821105
0.0798763
0.0639109
0.155499
0.323585
0.419538
0.323584
0.155498
0.0639108
0.0798764
0.0746885
0.0638105
0.110159
0.195774
0.247666
0.195773
0.110159
0.0638105
0.0746884
0.0626331
0.0601126
0.0953473
0.156323
0.194457
0.156323
0.0953471
0.0601124
0.0626329
0.0399924
0.0428792
0.103191
0.22304
0.287392
0.22304
0.103191
0.042879
0.0399921
0.0113038
0.00999416
0.0576586
0.212541
0.332807
0.212541
0.0576585
0.00999394
0.0113036
-4.9623e-16
-5.94972e-16
-1.03059e-15
-1.55977e-15
-2.89174e-15
-1.55974e-15
-1.03056e-15
-5.94958e-16
-4.9622e-16
-2.98988e-15
-4.77309e-15
-1.13109e-14
-1.94383e-14
-3.56393e-14
-1.9438e-14