/*--------------------------------*- C++ -*----------------------------------*\
  =========                 |
  \\      /  F ield         | OpenFOAM: The Open Source CFD Toolbox
   \\    /   O peration     | Website:  https://openfoam.org
    \\  /    A nd           | Version:  6
     \\/     M anipulation  |
\*---------------------------------------------------------------------------*/
FoamFile
{
    version     2.0;
    format      ascii;
    class       volScalarField;
    location    "0.3";
    object      alpha_air;
}
// * * * * * * * * * * * * * * * * * * * * * * * * * * * * * * * * * * * * * //

dimensions      [0 0 0 0 0 0 0];

internalField   nonuniform List<scalar> 
3029
(
0.999916
0.999954
0.999482
1.00131
0.940009
1.00131
0.999481
0.999954
0.999917
0.999884
0.999916
0.999332
1.0006
0.934537
1.0006
0.999332
0.999916
0.999884
0.999624
0.999474
0.998992
0.996962
0.913682
0.996961
0.998991
0.999472
0.999624
0.99882
0.998178
0.998528
0.985443
0.875916
0.985441
0.998525
0.998175
0.998819
0.995721
0.993608
0.992373
0.957101
0.819951
0.9571
0.992368
0.993603
0.99572
0.983495
0.97768
0.968771
0.903917
0.746834
0.903915
0.968765
0.977673
0.983493
0.951255
0.939335
0.91709
0.824064
0.660344
0.824064
0.917084
0.939326
0.951252
0.891013
0.872177
0.835171
0.72317
0.566355
0.723171
0.835165
0.872167
0.891009
0.80307
0.778642
0.730022
0.611336
0.471403
0.611337
0.730016
0.778631
0.803066
0.695485
0.668102
0.613452
0.499098
0.381266
0.4991
0.613447
0.668092
0.69548
0.579824
0.552251
0.49717
0.394669
0.300093
0.394671
0.497166
0.552242
0.579819
0.466984
0.441297
0.38989
0.302986
0.230146
0.302988
0.389887
0.441289
0.46698
0.364926
0.342204
0.296619
0.225921
0.171888
0.225923
0.296617
0.342197
0.364922
0.278191
0.258588
0.219091
0.162881
0.124222
0.162883
0.21909
0.258583
0.278187
0.208396
0.191389
0.156784
0.111937
0.0848011
0.111938
0.156783
0.191385
0.208393
0.154987
0.139806
0.107295
0.0632729
0.0321154
0.063274
0.107295
0.139804
0.154984
0.115765
0.100839
0.0639519
0.0203482
0.0084153
0.0203487
0.0639521
0.100837
0.115763
0.0873355
0.0723343
0.0356606
0.00442145
0.00187617
0.00442158
0.0356608
0.072333
0.0873339
0.0666101
0.0530772
0.0222897
0.000750324
0.000787887
0.00075065
0.0222903
0.0530765
0.0666089
0.0511967
0.0399389
0.0156686
2.79229e-05
0.000385014
2.81745e-05
0.0156687
0.0399381
0.0511958
0.0394557
0.0304725
0.0117089
-7.09554e-05
0.000181708
-7.07749e-05
0.0117089
0.030472
0.0394551
0.0303676
0.0233482
0.00895187
-5.50773e-05
4.59248e-05
-5.49574e-05
0.00895178
0.0233479
0.0303672
0.0232857
0.0178634
0.00687204
-3.31663e-05
-3.97902e-05
-3.3091e-05
0.00687195
0.0178632
0.0232854
0.017768
0.0136091
0.0052566
-2.18593e-05
-9.03793e-05
-2.18146e-05
0.00525652
0.013609
0.0177677
0.0134869
0.0103113
0.00399301
-1.98086e-05
-0.000116466
-1.97835e-05
0.00399295
0.0103113
0.0134867
0.0101871
0.00776648
0.00300683
-2.31387e-05
-0.000126077
-2.31245e-05
0.00300679
0.00776652
0.0101869
0.00766379
0.00581575
0.00224248
-2.80274e-05
-0.000124674
-2.80173e-05
0.00224246
0.00581582
0.00766357
0.00575112
0.00433299
0.00165728
-3.07298e-05
-0.000115347
-3.07178e-05
0.00165728
0.00433308
0.0057509
0.00431314
0.00321838
0.00121975
-2.66349e-05
-9.85907e-05
-2.66145e-05
0.00121978
0.00321849
0.00431293
0.00323754
0.00239299
0.000909829
-9.04507e-06
-7.12247e-05
-9.00676e-06
0.000909899
0.00239311
0.00323732
0.00243342
0.00180238
0.000693041
1.39012e-05
-3.8832e-05
1.39698e-05
0.000693162
0.0018025
0.0024332
0.00180982
0.00139782
0.000576708
1.27837e-05
-4.41828e-05
1.28627e-05
0.000576856
0.00139792
0.00180961
0.00125132
0.00106489
0.000540112
3.23078e-05
-6.62751e-05
3.2388e-05
0.000540242
0.00106494
0.0012511
0.000594417
0.000582499
0.000399811
7.17831e-05
-6.52074e-05
7.1888e-05
0.000399908
0.000582476
0.000594221
0.999954
0.998838
0.999085
0.991315
0.890734
0.991313
0.999083
0.998837
0.999955
0.999916
0.998654
0.998802
0.988317
0.880289
0.988315
0.9988
0.998653
0.999916
0.999473
0.997337
0.997381
0.976483
0.85094
0.97648
0.997378
0.997333
0.999472
0.998177
0.99447
0.991666
0.949383
0.802019
0.94938
0.991662
0.994465
0.998174
0.993608
0.985689
0.972756
0.900171
0.735223
0.900169
0.97275
0.985681
0.993602
0.97768
0.961378
0.930454
0.826576
0.654699
0.826574
0.930447
0.961368
0.977672
0.939334
0.911909
0.859997
0.732605
0.566199
0.732604
0.85999
0.911897
0.939324
0.872176
0.834422
0.764976
0.626745
0.475905
0.626745
0.764969
0.83441
0.872165
0.778641
0.734331
0.654924
0.518581
0.38929
0.518582
0.654919
0.734319
0.778628
0.668101
0.622032
0.540974
0.416166
0.310402
0.416167
0.540969
0.62202
0.668089
0.552251
0.508555
0.432528
0.32483
0.241644
0.324831
0.432524
0.508545
0.552239
0.441296
0.402659
0.335791
0.247194
0.183978
0.247195
0.335788
0.402651
0.441286
0.342203
0.309824
0.253834
0.183736
0.13719
0.183738
0.253832
0.309817
0.342195
0.258587
0.232538
0.187295
0.133496
0.100296
0.133498
0.187293
0.232533
0.258581
0.191389
0.171106
0.135294
0.0949113
0.0724635
0.0949125
0.135293
0.171102
0.191384
0.139806
0.124499
0.0962447
0.0648448
0.0465605
0.0648457
0.0962443
0.124496
0.139802
0.100839
0.0906263
0.066684
0.0365929
0.0198146
0.0365935
0.066684
0.0906243
0.100836
0.072334
0.0666418
0.0455154
0.0184747
0.00708046
0.0184751
0.0455156
0.0666404
0.0723321
0.053077
0.049877
0.0322605
0.0107167
0.00361716
0.010717
0.0322607
0.0498758
0.0530756
0.0399387
0.0378747
0.0238049
0.00723851
0.00244728
0.00723874
0.0238051
0.0378738
0.0399376
0.0304725
0.0289498
0.0179378
0.00528822
0.00185438
0.00528841
0.017938
0.0289489
0.0304717
0.0233482
0.0221384
0.0136067
0.00397594
0.00144223
0.0039761
0.0136068
0.0221376
0.0233476
0.0178634
0.0168774
0.0103113
0.00300577
0.00112014
0.0030059
0.0103115
0.0168768
0.017863
0.0136091
0.0128037
0.0077787
0.0022658
0.000863641
0.00226592
0.00777885
0.0128032
0.0136088
0.0103113
0.00965618
0.0058314
0.001698
0.000661256
0.00169811
0.00583156
0.0096558
0.010311
0.00776648
0.00723487
0.00433869
0.00126458
0.000504727
0.00126468
0.00433886
0.00723459
0.00776629
0.00581575
0.00538158
0.00319904
0.000938028
0.000388105
0.000938134
0.00319923
0.00538138
0.00581559
0.004333
0.00397047
0.00233286
0.000698055
0.00030746
0.00069817
0.00233307
0.00397035
0.00433286
0.00321839
0.0029022
0.00167813
0.000530076
0.000260528
0.000530208
0.00167837
0.00290216
0.00321827
0.002393
0.00210308
0.00119156
0.000422211
0.000243717
0.000422371
0.00119184
0.00210312
0.00239289
0.00180238
0.00150091
0.000730308
0.000291899
0.000198553
0.000292097
0.00073063
0.00150103
0.00180228
0.00139782
0.00117686
0.000569635
0.00022206
0.000155423
0.000222323
0.000570055
0.00117699
0.00139771
0.00106489
0.000993274
0.000577286
0.000151617
5.46739e-05
0.000151855
0.000577595
0.00099334
0.00106475
0.000582501
0.000611408
0.000455621
0.000110774
-3.70605e-05
0.000110997
0.000455819
0.000611391
0.000582338
0.999482
0.999085
0.997238
0.927787
0.743619
0.927786
0.997235
0.999083
0.999482
0.999332
0.998802
0.995148
0.916089
0.725306
0.916087
0.995144
0.998799
0.999331
0.998992
0.997381
0.985643
0.883788
0.68436
0.883786
0.985638
0.997377
0.99899
0.998527
0.991665
0.960999
0.82809
0.624546
0.828089
0.960993
0.991659
0.998523
0.992371
0.972754
0.913179
0.75067
0.552242
0.750669
0.913174
0.972746
0.992365
0.968769
0.930452
0.839536
0.657775
0.474246
0.657775
0.839531
0.930443
0.968761
0.917088
0.859994
0.744405
0.557886
0.39647
0.557887
0.744402
0.859985
0.917078
0.835168
0.764973
0.636805
0.459135
0.323359
0.459137
0.636802
0.764964
0.835157
0.730019
0.654922
0.526765
0.367693
0.257782
0.367695
0.526763
0.654913
0.730008
0.613449
0.540972
0.422621
0.287307
0.201212
0.287308
0.42262
0.540964
0.613439
0.497167
0.432526
0.329872
0.219578
0.154026
0.219579
0.329871
0.432519
0.497158
0.389888
0.33579
0.251222
0.164528
0.115845
0.16453
0.251222
0.335784
0.38988
0.296617
0.253833
0.187213
0.1212
0.0858534
0.121202
0.187213
0.253829
0.296611
0.21909
0.187294
0.137005
0.0881632
0.0630422
0.0881644
0.137005
0.187291
0.219085
0.156783
0.135293
0.099064
0.0638764
0.046532
0.0638774
0.0990643
0.135291
0.156779
0.107294
0.0962441
0.0716273
0.0469954
0.0357675
0.0469961
0.0716275
0.0962426
0.107292
0.0639513
0.0666836
0.0525442
0.0347888
0.0259371
0.0347894
0.0525444
0.0666826
0.0639498
0.0356603
0.0455151
0.0391493
0.0251001
0.0170493
0.0251005
0.0391495
0.0455147
0.0356593
0.0222895
0.0322603
0.029565
0.0183342
0.0118143
0.0183346
0.0295651
0.0322597
0.0222888
0.0156684
0.0238048
0.0225058
0.0136774
0.00866857
0.0136777
0.0225059
0.0238046
0.0156678
0.0117089
0.0179377
0.0171532
0.010315
0.0065402
0.0103152
0.0171532
0.0179376
0.0117082
0.00895182
0.0136067
0.0130357
0.00779657
0.00497778
0.00779675
0.0130357
0.0136065
0.0089513
0.00687201
0.0103113
0.00985688
0.00587875
0.00378843
0.00587892
0.00985687
0.0103111
0.00687159
0.00525659
0.00777869
0.0074072
0.0044095
0.00287101
0.00440967
0.00740721
0.00777851
0.00525624
0.00399301
0.0058314
0.00552579
0.00328449
0.00216219
0.00328467
0.00552584
0.00583125
0.00399272
0.00300684
0.0043387
0.00408496
0.00242508
0.00161644
0.00242527
0.00408504
0.00433857
0.0030066
0.00224249
0.00319905
0.00298203
0.00176899
0.00119786
0.00176919
0.00298215
0.00319896
0.00224229
0.0016573
0.00233287
0.00213332
0.00126584
0.000876991
0.00126604
0.00213348
0.00233281
0.00165713
0.00121976
0.00167814
0.00146737
0.000872804
0.000627728
0.000873009
0.00146756
0.00167813
0.00121962
0.000909844
0.00119157
0.000910993
0.000544687
0.000418799
0.00054489
0.000911213
0.00119161
0.000909727
0.000693053
0.000730315
0.000285682
0.000187944
0.000174363
0.000188111
0.000285895
0.000730436
0.000692966
0.00057672
0.000569641
0.000569761
0.000576631
0.000540121
0.000577293
0.000566037
0.000262683
8.95372e-05
0.000262977
0.00056632
0.000577359
0.000540014
0.000399816
0.000455625
0.000499359
0.000225951
3.29065e-05
0.000226285
0.000499646
0.000455599
0.000399683
0.000453117
0.000215919
2.595e-05
0.000216303
0.000453565
0.000410525
0.000200618
2.55642e-05
0.000200987
0.000410945
0.000368307
0.00018117
2.34709e-05
0.000181534
0.00036872
0.00032898
0.00016174
2.07495e-05
0.00016211
0.000329379
0.000293134
0.000143632
1.79417e-05
0.00014401
0.000293522
0.000260783
0.000127183
1.52862e-05
0.000127569
0.000261161
0.000231699
0.000112374
1.28479e-05
0.000112765
0.000232066
0.0002056
9.90906e-05
1.06365e-05
9.94852e-05
0.000205958
0.000182205
8.71958e-05
8.64069e-06
8.75922e-05
0.000182553
0.000161175
7.65192e-05
6.83755e-06
7.69159e-05
0.000161513
0.000142754
6.71428e-05
5.20202e-06
6.75381e-05
0.000143082
0.00011722
5.35178e-05
1.71542e-06
5.39197e-05
0.000117544
1.00131
0.991314
0.927786
0.706543
0.453139
0.706544
0.927783
0.991311
1.00131
1.00059
0.988314
0.916087
0.685211
0.434936
0.685212
0.916083
0.98831
1.00059
0.99696
0.97648
0.883785
0.638905
0.399685
0.638907
0.883782
0.976475
0.996957
0.98544
0.949379
0.828088
0.573018
0.353517
0.573021
0.828085
0.949372
0.985435
0.957098
0.900167
0.750667
0.496022
0.302946
0.496025
0.750665
0.90016
0.957091
0.903912
0.82657
0.657772
0.41623
0.252918
0.416233
0.657772
0.826563
0.903904
0.824059
0.7326
0.557884
0.339991
0.206513
0.339994
0.557884
0.732593
0.824051
0.723164
0.626739
0.459133
0.27126
0.165336
0.271263
0.459135
0.626733
0.723156
0.61133
0.518576
0.367691
0.211947
0.130001
0.21195
0.367693
0.518572
0.611323
0.499093
0.416162
0.287305
0.162508
0.100504
0.162511
0.287308
0.416158
0.499086
0.394664
0.324826
0.219576
0.122485
0.0764784
0.122487
0.219579
0.324824
0.394658
0.302982
0.247191
0.164527
0.0909216
0.057361
0.0909238
0.16453
0.247189
0.302977
0.225918
0.183734
0.121199
0.0666548
0.04251
0.0666566
0.121202
0.183733
0.225914
0.162879
0.133495
0.0881627
0.0485064
0.0312863
0.0485078
0.0881647
0.133494
0.162876
0.111935
0.0949102
0.0638761
0.0353913
0.0231092
0.0353925
0.0638778
0.0949099
0.111933
0.0632721
0.064844
0.0469951
0.0264056
0.0176406
0.0264065
0.0469964
0.0648439
0.0632708
0.0203479
0.0365924
0.0347886
0.0206395
0.0143281
0.0206402
0.0347896
0.0365922
0.0203471
0.00442139
0.0184744
0.0250999
0.0164486
0.0116152
0.0164492
0.0251007
0.0184743
0.00442072
0.00075031
0.0107166
0.0183341
0.0129867
0.00921021
0.012987
0.0183342
0.010716
0.000749865
2.79212e-05
0.00723843
0.0136773
0.0101242
0.00720417
0.0101245
0.0136777
0.00723824
2.7542e-05
-7.09533e-05
0.00528818
0.0103149
0.00781297
0.00558896
0.00781317
0.0103151
0.00528809
-7.12855e-05
-5.50731e-05
0.00397592
0.00779654
0.00598123
0.00430845
0.00598138
0.00779658
0.00397587
-5.53662e-05
-3.31607e-05
0.00300576
0.00587874
0.00454617
0.0033013
0.00454631
0.00587872
0.00300572
-3.3418e-05
-2.18523e-05
0.00226581
0.0044095
0.00343181
0.00251392
0.00343194
0.00440947
0.00226577
-2.20762e-05
-1.98006e-05
0.00169801
0.00328449
0.00257075
0.0019008
0.00257089
0.00328447
0.00169798
-1.99935e-05
-2.31302e-05
0.00126459
0.00242509
0.00190644
0.00142405
0.00190659
0.00242509
0.00126456
-2.32947e-05
-2.80189e-05
0.000938043
0.001769
0.0013925
0.00105244
0.00139266
0.00176902
0.000938014
-2.81584e-05
-3.07215e-05
0.000698069
0.00126585
0.000990379
0.000759695
0.000990539
0.0012659
0.000698047
-3.08397e-05
-2.66272e-05
0.000530089
0.00087281
0.000666724
0.00052259
0.00066688
0.000872887
0.000530078
-2.67281e-05
-9.03789e-06
0.000422221
0.000544691
0.000388279
0.00031674
0.000388416
0.000544799
0.000422234
-9.12493e-06
1.39078e-05
0.000291905
0.000187945
0.000117084
0.000111597
0.000117164
0.000188045
0.000291945
1.38353e-05
1.279e-05
0.000222065
0.000222104
1.27159e-05
3.23143e-05
0.000151623
0.000262688
0.000240646
0.000114244
0.000240962
0.000262902
0.000151643
3.22292e-05
7.17885e-05
0.00011078
0.000225956
0.000227154
0.000100165
0.000227564
0.000226174
0.00011073
7.16836e-05
0.000215923
0.000205479
8.89444e-05
0.000206008
0.000216309
0.000200621
0.000183728
7.95961e-05
0.000184265
0.000200987
0.000181173
0.000163213
7.0742e-05
0.000163739
0.000181533
0.000161743
0.000144474
6.2553e-05
0.000144991
0.00016209
0.000143635
0.000127586
5.50963e-05
0.000128093
0.000143972
0.000127186
0.000112454
4.83674e-05
0.000112952
0.000127513
0.000112376
9.89322e-05
4.23209e-05
9.94211e-05
0.000112693
9.90925e-05
8.68691e-05
3.69015e-05
8.73478e-05
9.93996e-05
8.71975e-05
7.61179e-05
3.20511e-05
7.65857e-05
8.74946e-05
7.65207e-05
6.65136e-05
2.7702e-05
6.69703e-05
7.6808e-05
6.71442e-05
5.81089e-05
2.38594e-05
5.85543e-05
6.7422e-05
5.3519e-05
4.6168e-05
1.79062e-05
4.66082e-05
5.37897e-05
0.940007
0.890731
0.743616
0.453139
0.225026
0.453142
0.743615
0.890728
0.940007
0.934533
0.880285
0.725303
0.434936
0.215353
0.434939
0.725301
0.880281
0.934531
0.913678
0.850934
0.684356
0.399685
0.19774
0.399688
0.684355
0.85093
0.913674
0.875911
0.802013
0.624542
0.353517
0.175611
0.35352
0.624541
0.802009
0.875906
0.819945
0.735217
0.552239
0.302947
0.151946
0.302948
0.552238
0.735212
0.81994
0.746827
0.654693
0.474244
0.252919
0.128711
0.25292
0.474243
0.654688
0.746821
0.660337
0.566193
0.396468
0.206514
0.107007
0.206515
0.396468
0.566188
0.660331
0.566349
0.4759
0.323357
0.165337
0.0874051
0.16534
0.323358
0.475895
0.566343
0.471398
0.389286
0.257781
0.130002
0.0701706
0.130006
0.257783
0.389281
0.471393
0.381262
0.310398
0.201211
0.100505
0.0553837
0.100509
0.201214
0.310395
0.381257
0.300089
0.241642
0.154025
0.076479
0.0429937
0.0764838
0.154029
0.241639
0.300085
0.230144
0.183976
0.115845
0.0573615
0.0328538
0.0573663
0.115849
0.183974
0.23014
0.171885
0.137189
0.0858533
0.0425103
0.024753
0.0425148
0.0858574
0.137188
0.171882
0.124221
0.100295
0.0630421
0.0312866
0.0184485
0.0312906
0.063046
0.100294
0.124218
0.0848
0.0724627
0.0465319
0.0231094
0.0136898
0.0231129
0.0465353
0.0724626
0.0847981
0.032115
0.0465601
0.0357674
0.0176407
0.0102584
0.0176437
0.0357701
0.0465599
0.0321139
0.00841521
0.0198144
0.0259369
0.0143281
0.00801331
0.0143307
0.0259387
0.0198138
0.00841436
0.00187616
0.00708039
0.0170492
0.0116152
0.00650182
0.0116173
0.0170504
0.00707978
0.00187539
0.000787884
0.00361712
0.0118143
0.00921022
0.00530479
0.0092117
0.0118149
0.00361642
0.000787176
0.000385014
0.00244726
0.00866853
0.00720418
0.00429006
0.0072054
0.00866921
0.00244671
0.000384383
0.000181709
0.00185437
0.00654017
0.00558897
0.00343331
0.00558985
0.00654075
0.00185396
0.000181162
4.59268e-05
0.00144222
0.00497777
0.00430845
0.0027222
0.0043091
0.00497822
0.00144194
4.54586e-05
-3.97879e-05
0.00112013
0.00378842
0.0033013
0.00213991
0.00330178
0.00378877
0.00111994
-4.01843e-05
-9.03769e-05
0.000863641
0.00287101
0.00251392
0.00166909
0.0025143
0.00287127
0.000863509
-9.07094e-05
-0.000116464
0.000661259
0.00216219
0.0019008
0.00129135
0.0019011
0.00216239
0.000661169
-0.00011674
-0.000126074
0.000504732
0.00161645
0.00142405
0.000989463
0.00142428
0.00161659
0.000504671
-0.000126303
-0.000124672
0.000388111
0.00119787
0.00105244
0.00074817
0.00105262
0.00119798
0.000388068
-0.000124859
-0.000115345
0.000307466
0.000876994
0.000759695
0.000553714
0.000759835
0.000877083
0.000307436
-0.0001155
-9.85888e-05
0.000260533
0.000627731
0.000522589
0.000392876
0.000522691
0.000627804
0.000260511
-9.87198e-05
-7.12228e-05
0.000243721
0.000418801
0.000316739
0.00024994
0.000316798
0.000418864
0.00024371
-7.13377e-05
-3.88302e-05
0.000198556
0.000174363
0.000111596
0.000101361
0.000111592
0.000174373
0.000198534
-3.89345e-05
-4.41812e-05
0.000155425
0.000155387
-4.42824e-05
-6.62738e-05
5.46756e-05
8.95392e-05
0.000114246
8.47603e-05
0.000114269
8.95368e-05
5.4607e-05
-6.63865e-05
-6.52064e-05
-3.70593e-05
3.29081e-05
0.000100166
8.39408e-05
0.000100179
3.28238e-05
-3.72402e-05
-6.53582e-05
2.59516e-05
8.89458e-05
7.69419e-05
8.90151e-05
2.58928e-05
2.55657e-05
7.95973e-05
6.88018e-05
7.97989e-05
2.55144e-05
2.34723e-05
7.07431e-05
6.08724e-05
7.10098e-05
2.34278e-05
2.07508e-05
6.2554e-05
5.35617e-05
6.28387e-05
2.07005e-05
1.79429e-05
5.50973e-05
4.69563e-05
5.53841e-05
1.78879e-05
1.52873e-05
4.83682e-05
4.10345e-05
4.86532e-05
1.52278e-05
1.28489e-05
4.23217e-05
3.57435e-05
4.26031e-05
1.27859e-05
1.06374e-05
3.69022e-05
3.10258e-05
3.71793e-05
1.05719e-05
8.64151e-06
3.20517e-05
2.6824e-05
3.23238e-05
8.57434e-06
6.8383e-06
2.77025e-05
2.30759e-05
2.79694e-05
6.7702e-06
5.2027e-06
2.38599e-05
1.97751e-05
2.41212e-05
5.13435e-06
1.71601e-06
1.79066e-05
1.48003e-05
1.8164e-05
1.64543e-06
1.00131
0.99131
0.927782
0.706544
0.453143
0.706545
0.927781
0.991309
1.00131
1.00059
0.988311
0.916083
0.685212
0.43494
0.685213
0.916081
0.988309
1.00059
0.996958
0.976476
0.883782
0.638907
0.399689
0.638909
0.88378
0.976473
0.996956
0.985437
0.949374
0.828085
0.573021
0.353521
0.573023
0.828084
0.949372
0.985435
0.957095
0.900163
0.750666
0.496026
0.30295
0.496028
0.750665
0.90016
0.957091
0.90391
0.826568
0.657773
0.416235
0.252921
0.416237
0.657773
0.826565
0.903905
0.824058
0.732599
0.557885
0.339996
0.206517
0.339999
0.557886
0.732596
0.824052
0.723165
0.62674
0.459136
0.271265
0.165341
0.271269
0.459137
0.626737
0.723159
0.611332
0.518578
0.367694
0.211952
0.130007
0.211957
0.367696
0.518575
0.611326
0.499096
0.416164
0.287308
0.162512
0.10051
0.162519
0.287311
0.416162
0.49909
0.394667
0.324829
0.21958
0.122489
0.0764845
0.122496
0.219583
0.324827
0.394662
0.302985
0.247194
0.16453
0.0909248
0.0573668
0.0909324
0.164534
0.247192
0.30298
0.225921
0.183737
0.121202
0.0666574
0.0425151
0.0666648
0.121206
0.183735
0.225917
0.162882
0.133497
0.0881646
0.0485084
0.0312908
0.0485152
0.0881691
0.133496
0.162878
0.111937
0.0949119
0.0638775
0.0353929
0.0231131
0.0353989
0.0638816
0.0949112
0.111934
0.0632734
0.0648453
0.0469962
0.0264067
0.0176438
0.0264119
0.0469996
0.0648447
0.0632716
0.0203485
0.0365932
0.0347894
0.0206404
0.0143308
0.0206448
0.034792
0.0365926
0.0203474
0.00442155
0.0184749
0.0251005
0.0164493
0.0116174
0.016453
0.0251025
0.0184743
0.00442073
0.000750646
0.010717
0.0183345
0.0129871
0.00921175
0.0129902
0.0183362
0.0107163
0.000749946
2.81744e-05
0.00723869
0.0136777
0.0101245
0.00720543
0.010127
0.0136793
0.00723811
2.75652e-05
-7.07752e-05
0.00528838
0.0103152
0.00781322
0.00558987
0.00781519
0.0103167
0.00528793
-7.13002e-05
-5.49585e-05
0.00397608
0.00779675
0.00598141
0.00430912
0.00598295
0.00779802
0.00397575
-5.54065e-05
-3.30928e-05
0.00300589
0.00587893
0.00454633
0.0033018
0.00454752
0.00588
0.00300566
-3.34721e-05
-2.18165e-05
0.00226591
0.00440968
0.00343196
0.00251431
0.00343287
0.00441055
0.00226576
-2.2136e-05
-1.97854e-05
0.0016981
0.00328467
0.0025709
0.0019011
0.00257158
0.00328537
0.001698
-2.00538e-05
-2.31262e-05
0.00126468
0.00242527
0.0019066
0.00142429
0.0019071
0.00242581
0.0012646
-2.33521e-05
-2.80188e-05
0.000938135
0.00176919
0.00139266
0.00105262
0.00139301
0.00176959
0.000938075
-2.82107e-05
-3.07191e-05
0.000698172
0.00126605
0.000990541
0.000759837
0.000990777
0.00126633
0.000698119
-3.08856e-05
-2.66154e-05
0.00053021
0.000873011
0.00066688
0.000522692
0.000667018
0.000873193
0.000530157
-2.6767e-05
-9.00721e-06
0.000422373
0.000544891
0.000388415
0.000316798
0.000388465
0.000544984
0.000422317
-9.15532e-06
1.39696e-05
0.000292098
0.000188111
0.000117163
0.000111591
0.000117122
0.000188076
0.000291997
1.38133e-05
1.2862e-05
0.000222324
0.000222141
1.26929e-05
3.23871e-05
0.000151855
0.000262979
0.000240964
0.000114271
0.000240672
0.000262722
0.000151624
3.21906e-05
7.1888e-05
0.000110997
0.000226287
0.000227566
0.00010018
0.000227137
0.000225868
0.000110622
7.16229e-05
0.000216305
0.00020601
8.90165e-05
0.000205477
0.00021574
0.000200989
0.000184266
7.98003e-05
0.000184
0.000200529
0.000181536
0.00016374
7.1011e-05
0.000163639
0.000181134
0.000162111
0.000144992
6.28398e-05
0.000144954
0.000161728
0.000144012
0.000128094
5.53851e-05
0.00012808
0.000143634
0.00012757
0.000112953
4.8654e-05
0.000112954
0.000127196
0.000112766
9.9422e-05
4.26039e-05
9.94329e-05
0.000112397
9.94862e-05
8.73486e-05
3.718e-05
8.73684e-05
9.91226e-05
8.75932e-05
7.65865e-05
3.23245e-05
7.6614e-05
8.72362e-05
7.69168e-05
6.69709e-05
2.79699e-05
6.70055e-05
7.65674e-05
6.75389e-05
5.85549e-05
2.41217e-05
5.8595e-05
6.71978e-05
5.39204e-05
4.66087e-05
1.81644e-05
4.66479e-05
5.35778e-05
0.999481
0.999081
0.997233
0.927781
0.743614
0.927781
0.997231
0.999081
0.999481
0.999331
0.998798
0.995141
0.916081
0.7253
0.916081
0.995139
0.998797
0.999331
0.99899
0.997375
0.985635
0.88378
0.684355
0.88378
0.985633
0.997374
0.998989
0.998522
0.991658
0.960989
0.828084
0.624541
0.828084
0.960987
0.991656
0.998521
0.992365
0.972745
0.913169
0.750664
0.552238
0.750665
0.913167
0.972742
0.992363
0.96876
0.930441
0.839527
0.657771
0.474243
0.657772
0.839526
0.930438
0.968758
0.917079
0.859984
0.744398
0.557884
0.396468
0.557885
0.744397
0.85998
0.917075
0.835159
0.764964
0.6368
0.459135
0.323358
0.459137
0.636799
0.76496
0.835155
0.730011
0.654914
0.526761
0.367694
0.257783
0.367696
0.526761
0.65491
0.730007
0.613442
0.540965
0.422618
0.287309
0.201214
0.287311
0.422619
0.540962
0.613438
0.497161
0.43252
0.32987
0.21958
0.15403
0.219583
0.329871
0.432518
0.497158
0.389883
0.335786
0.251221
0.164531
0.115849
0.164534
0.251222
0.335783
0.38988
0.296614
0.25383
0.187213
0.121202
0.0858578
0.121206
0.187214
0.253828
0.296612
0.219088
0.187292
0.137005
0.0881653
0.0630462
0.088169
0.137006
0.187291
0.219086
0.156782
0.135292
0.0990643
0.0638782
0.0465355
0.0638816
0.0990657
0.135291
0.15678
0.107294
0.0962438
0.0716276
0.0469968
0.0357702
0.0469996
0.071629
0.0962429
0.107292
0.0639516
0.0666836
0.0525445
0.0347898
0.0259388
0.0347921
0.0525458
0.0666829
0.0639503
0.0356605
0.0455154
0.0391496
0.0251009
0.0170505
0.0251026
0.0391508
0.0455148
0.0356595
0.0222901
0.0322606
0.0295651
0.0183344
0.011815
0.0183363
0.0295664
0.0322602
0.0222893
0.0156686
0.023805
0.022506
0.0136778
0.00866926
0.0136793
0.0225072
0.0238046
0.0156679
0.0117088
0.0179379
0.0171533
0.0103152
0.00654079
0.0103167
0.0171545
0.0179377
0.0117082
0.00895173
0.0136068
0.0130358
0.00779664
0.00497826
0.00779805
0.0130369
0.0136066
0.00895124
0.00687191
0.0103115
0.0098569
0.00587877
0.0037888
0.00588003
0.00985788
0.0103113
0.0068715
0.0052565
0.00777885
0.00740724
0.0044095
0.0028713
0.00441058
0.00740808
0.00777868
0.00525614
0.00399293
0.00583157
0.00552586
0.00328449
0.00216241
0.00328539
0.00552655
0.00583141
0.00399262
0.00300678
0.00433887
0.00408506
0.0024251
0.00161661
0.00242583
0.00408561
0.00433871
0.00300651
0.00224245
0.00319924
0.00298216
0.00176903
0.00119799
0.00176961
0.00298258
0.00319907
0.0022422
0.00165728
0.00233308
0.00213349
0.00126591
0.000877092
0.00126634
0.0021338
0.0023329
0.00165705
0.00121978
0.00167838
0.00146756
0.000872892
0.000627811
0.000873202
0.00146777
0.00167819
0.00121955
0.0009099
0.00119184
0.000911218
0.000544802
0.000418868
0.00054499
0.000911341
0.00119164
0.000909664
0.000693163
0.000730634
0.000285896
0.000188045
0.000174374
0.000188077
0.000285909
0.000730417
0.000692902
0.000576858
0.000570059
0.000569721
0.000576565
0.000540245
0.0005776
0.000566325
0.000262903
8.95391e-05
0.000262726
0.000566028
0.000577246
0.00053994
0.000399913
0.000455825
0.000499652
0.000226175
3.28255e-05
0.000225873
0.000499202
0.000455426
0.000399616
0.000453571
0.000216311
2.58945e-05
0.000215744
0.000452772
0.00041095
0.000200988
2.55159e-05
0.000200532
0.000410211
0.000368725
0.000181535
2.34292e-05
0.000181137
0.00036801
0.000329383
0.000162091
2.07018e-05
0.000161731
0.000328703
0.000293526
0.000143974
1.78891e-05
0.000143637
0.000292877
0.000261164
0.000127514
1.52289e-05
0.000127199
0.000260546
0.00023207
0.000112694
1.27869e-05
0.000112399
0.00023148
0.00020596
9.94005e-05
1.05728e-05
9.91244e-05
0.000205399
0.000182556
8.74955e-05
8.57513e-06
8.72378e-05
0.000182021
0.000161516
7.68088e-05
6.77091e-06
7.65689e-05
0.000161007
0.000143084
6.74228e-05
5.135e-06
6.71991e-05
0.000142599
0.000117545
5.37903e-05
1.64598e-06
5.35789e-05
0.000117082
0.999954
0.998835
0.999081
0.991309
0.890727
0.991309
0.999081
0.998835
0.999954
0.999915
0.998651
0.998798
0.988309
0.88028
0.988308
0.998797
0.998651
0.999915
0.999471
0.997332
0.997375
0.976473
0.850929
0.976473
0.997374
0.997331
0.999471
0.998173
0.994462
0.991657
0.949371
0.802008
0.949371
0.991656
0.994461
0.998172
0.9936
0.985678
0.972743
0.900158
0.735212
0.900159
0.972742
0.985676
0.993598
0.977669
0.961364
0.930439
0.826562
0.654688
0.826564
0.930438
0.961362
0.977667
0.939321
0.911892
0.859981
0.732592
0.566188
0.732595
0.85998
0.91189
0.939319
0.872162
0.834405
0.764961
0.626733
0.475895
0.626736
0.76496
0.834402
0.872158
0.778626
0.734314
0.654911
0.518572
0.389282
0.518575
0.65491
0.734312
0.778623
0.668088
0.622016
0.540962
0.416159
0.310395
0.416161
0.540962
0.622014
0.668084
0.552238
0.508542
0.432518
0.324824
0.241639
0.324826
0.432518
0.50854
0.552235
0.441286
0.402648
0.335784
0.24719
0.183975
0.247191
0.335783
0.402647
0.441283
0.342195
0.309815
0.253829
0.183734
0.137188
0.183735
0.253828
0.309814
0.342192
0.258581
0.232532
0.187291
0.133495
0.100295
0.133496
0.187291
0.23253
0.258579
0.191384
0.171101
0.135291
0.0949104
0.0724628
0.0949111
0.135291
0.1711
0.191383
0.139803
0.124496
0.0962428
0.0648442
0.04656
0.0648447
0.0962429
0.124495
0.139802
0.100837
0.0906241
0.0666828
0.0365924
0.0198139
0.0365926
0.0666829
0.0906236
0.100836
0.0723327
0.0666404
0.0455148
0.0184745
0.00707983
0.0184743
0.0455148
0.0666399
0.0723318
0.0530763
0.0498758
0.0322598
0.0107161
0.00361645
0.0107163
0.0322602
0.0498756
0.0530756
0.0399379
0.0378738
0.0238048
0.0072383
0.00244674
0.00723815
0.0238047
0.0378736
0.0399374
0.0304719
0.0289489
0.0179377
0.00528814
0.00185398
0.00528797
0.0179377
0.028949
0.0304714
0.0233479
0.0221377
0.0136065
0.00397591
0.00144196
0.00397579
0.0136066
0.0221378
0.0233474
0.0178632
0.0168769
0.0103112
0.00300575
0.00111996
0.00300569
0.0103113
0.016877
0.0178628
0.013609
0.0128032
0.00777856
0.00226579
0.000863524
0.00226579
0.00777872
0.0128033
0.0136086
0.0103113
0.00965585
0.00583129
0.00169799
0.000661182
0.00169803
0.00583144
0.00965593
0.0103109
0.00776654
0.00723463
0.0043386
0.00126457
0.000504682
0.00126463
0.00433874
0.00723468
0.0077662
0.00581584
0.00538142
0.00319898
0.000938023
0.000388078
0.000938096
0.0031991
0.00538143
0.00581551
0.00433311
0.00397039
0.00233283
0.000698054
0.000307444
0.000698137
0.00233292
0.00397036
0.00433279
0.00321851
0.00290219
0.00167814
0.000530083
0.000260518
0.000530172
0.00167821
0.00290211
0.00321819
0.00239313
0.00210314
0.00119162
0.000422238
0.000243716
0.000422329
0.00119165
0.00210302
0.00239281
0.00180252
0.00150105
0.000730441
0.000291947
0.000198537
0.000292004
0.000730425
0.00150086
0.00180219
0.00139794
0.00117701
0.000569764
0.000222105
0.00015539
0.000222146
0.000569727
0.00117678
0.00139762
0.00106495
0.000993353
0.000577363
0.000151643
5.46091e-05
0.00015163
0.000577252
0.000993108
0.00106466
0.000582486
0.000611401
0.000455605
0.00011073
-3.72391e-05
0.000110628
0.00045543
0.000611191
0.000582259
0.999917
0.999954
0.999481
1.00131
0.940006
1.00131
0.999481
0.999954
0.999917
0.999884
0.999915
0.999331
1.00059
0.934531
1.00059
0.999331
0.999915
0.999884
0.999623
0.999471
0.998989
0.996956
0.913674
0.996956
0.998989
0.999471
0.999623
0.998818
0.998173
0.998522
0.985435
0.875906
0.985434
0.998521
0.998172
0.998817
0.995718
0.9936
0.992363
0.95709
0.819939
0.95709
0.992363
0.993598
0.995716
0.983491
0.977669
0.968758
0.903904
0.746821
0.903904
0.968758
0.977667
0.983487
0.951249
0.939321
0.917076
0.824051
0.660331
0.824052
0.917075
0.939319
0.951245
0.891006
0.872161
0.835155
0.723156
0.566343
0.723158
0.835155
0.872158
0.891001
0.803063
0.778625
0.730006
0.611323
0.471393
0.611325
0.730006
0.778623
0.803058
0.695477
0.668086
0.613437
0.499087
0.381257
0.499089
0.613438
0.668084
0.695473
0.579816
0.552237
0.497157
0.394659
0.300085
0.394661
0.497157
0.552235
0.579812
0.466978
0.441285
0.389879
0.302978
0.23014
0.30298
0.38988
0.441283
0.466974
0.36492
0.342194
0.296611
0.225915
0.171882
0.225916
0.296611
0.342192
0.364917
0.278186
0.25858
0.219085
0.162877
0.124218
0.162878
0.219085
0.258579
0.278184
0.208392
0.191384
0.156779
0.111934
0.0847983
0.111934
0.15678
0.191383
0.20839
0.154984
0.139802
0.107292
0.0632712
0.032114
0.0632716
0.107292
0.139802
0.154982
0.115763
0.100836