/*--------------------------------*- C++ -*----------------------------------*\
  =========                 |
  \\      /  F ield         | OpenFOAM: The Open Source CFD Toolbox
   \\    /   O peration     | Website:  https://openfoam.org
    \\  /    A nd           | Version:  6
     \\/     M anipulation  |
\*---------------------------------------------------------------------------*/
FoamFile
{
    version     2.0;
    format      ascii;
    class       volScalarField;
    location    "0";
    object      p;
}
// * * * * * * * * * * * * * * * * * * * * * * * * * * * * * * * * * * * * * //

dimensions      [0 2 -2 0 0 0 0];

internalField   nonuniform List<scalar> 
1024
(
9.51701e-05
8.87341e-05
7.69633e-05
6.1696e-05
4.52601e-05
3.01623e-05
1.87397e-05
1.27638e-05
0.000103702
9.66744e-05
8.38305e-05
6.71288e-05
4.90707e-05
3.2377e-05
1.96157e-05
1.28021e-05
0.000125078
0.000117183
0.000102711
8.37643e-05
6.31089e-05
4.38191e-05
2.88395e-05
2.0548e-05
0.000163191
0.000154142
0.000137511
0.000115629
9.16625e-05
6.92222e-05
5.1801e-05
4.2199e-05
0.000220814
0.000210961
0.000192763
0.000168725
0.000142397
0.000117892
9.91582e-05
8.91429e-05
0.000297551
0.000288271
0.000270876
0.000247774
0.000222578
0.000199491
0.000182397
0.000173761
0.00038713
0.000380684
0.000368057
0.000351099
0.000332852
0.000316771
0.000305753
0.000300971
0.000475443
0.000474328
0.000471032
0.00046631
0.000461729
0.000458809
0.000458317
0.000459486
0.000541464
0.000547201
0.00055645
0.000568493
0.00058242
0.000596715
0.000609085
0.000616726
0.000563082
0.00057517
0.000596952
0.000626092
0.000658615
0.000689497
0.000713354
0.000725983
0.000527457
0.000543338
0.000573962
0.000615306
0.000660604
0.000701927
0.000732003
0.000746561
0.000440601
0.000456837
0.000489824
0.000534142
0.000581569
0.000623146
0.000651722
0.000664483
0.000326054
0.000339752
0.000367501
0.000403739
0.000441067
0.0004721
0.000491921
0.000499885
0.000211144
0.00022014
0.000236581
0.000256537
0.000275573
0.000289925
0.000297944
0.00030042
0.000113327
0.000116208
0.000119752
0.000122706
0.000124241
0.000124353
0.000123833
0.000123514
3.49781e-05
3.47856e-05
3.34976e-05
3.12068e-05
2.8357e-05
2.57461e-05
2.41635e-05
2.38732e-05
9.50516e-05
8.86586e-05
7.69531e-05
6.17531e-05
4.53656e-05
3.02776e-05
1.88129e-05
1.27495e-05
0.000103484
9.64895e-05
8.36848e-05
6.70138e-05
4.89623e-05
3.22358e-05
1.93927e-05
1.24594e-05
0.000124659
0.00011674
0.000102196
8.31376e-05
6.23405e-05
4.28905e-05
2.77497e-05
1.93291e-05
0.000162589
0.000153445
0.000136611
0.000114447
9.01634e-05
6.74178e-05
4.97551e-05
4.00216e-05
0.000220167
0.000210133
0.000191583
0.000167081
0.000140259
0.000115332
9.63422e-05
8.62877e-05
0.00029717
0.000287625
0.000269751
0.000246056
0.000220281
0.000196784
0.00017958
0.000171157
0.000387466
0.000380747
0.000367652
0.000350171
0.000331502
0.000315258
0.000304453
0.000300193
0.000476781
0.000475508
0.000471991
0.000467109
0.000462537
0.000459878
0.000459912
0.000461689
0.000543433
0.000549193
0.000558668
0.000571128
0.000585636
0.000600596
0.000613551
0.000621484
0.000564547
0.000576833
0.000599304
0.000629417
0.000662989
0.000694715
0.000718914
0.000731291
0.000527197
0.000543526
0.000575131
0.000617696
0.000664114
0.000706093
0.000736067
0.000749917
0.000438533
0.000455471
0.000489398
0.000534666
0.000582744
0.000624393
0.000652395
0.000664273
0.000323682
0.000337932
0.000366097
0.000402495
0.000439593
0.000469989
0.000489007
0.000496266
0.000209984
0.00021893
0.000234983
0.000254204
0.000272262
0.000285679
0.000293104
0.000295383
0.000113376
0.000115794
0.000118585
0.000120598
0.000121241
0.000120792
0.00012018
0.000120186
3.51983e-05
3.47493e-05
3.31059e-05
3.04361e-05
2.73012e-05
2.45838e-05
2.30929e-05
2.30638e-05
9.48265e-05
8.84519e-05
7.67695e-05
6.15814e-05
4.51804e-05
3.00455e-05
1.8506e-05
1.23711e-05
0.000103158
9.61685e-05
8.33569e-05
6.66564e-05
4.85446e-05
3.1724e-05
1.87637e-05
1.17277e-05
0.000124142
0.000116179
0.000101533
8.23246e-05
6.13419e-05
4.16898e-05
2.63571e-05
1.77995e-05
0.0001619
0.000152639
0.000135573
0.000113094
8.84608e-05
6.53847e-05
4.74637e-05
3.7585e-05
0.000219465
0.000209232
0.00019031
0.00016533
0.000138015
0.000112684
9.34594e-05
8.33487e-05
0.000296792
0.000286987
0.000268658
0.000244417
0.000218144
0.000194341
0.000177107
0.00016886
0.000387853
0.000380895
0.000367423
0.000349559
0.000330651
0.000314444
0.000303979
0.000300171
0.000478141
0.000476784
0.000473191
0.000468353
0.00046404
0.000461883
0.000462567
0.000464868
0.000545264
0.000551185
0.00056103
0.000574087
0.000589379
0.000605152
0.000618744
0.000626936
0.000565665
0.000578333
0.000601577
0.000632721
0.000667343
0.000699845
0.000724305
0.000736502
0.000526678
0.000543514
0.000576049
0.000619682
0.000666947
0.000709243
0.000738905
0.000752188
0.00043661
0.000454005
0.000488604
0.000534441
0.000582681
0.000623938
0.000651158
0.000662317
0.000321511
0.000335929
0.000364156
0.000400306
0.000436761
0.000466253
0.000484407
0.000491141
0.000208617
0.000217369
0.000232906
0.000251279
0.000268327
0.00028085
0.000287727
0.000289873
0.000113046
0.000115124
0.000117272
0.000118487
0.000118404
0.000117497
0.000116771
0.000116916
3.52611e-05
3.46474e-05
3.2729e-05
2.97684e-05
2.64167e-05
2.3612e-05
2.21652e-05
2.22378e-05
9.45499e-05
8.81722e-05
7.64766e-05
6.12563e-05
4.47986e-05
2.95852e-05
1.79597e-05
1.17602e-05
0.000102813
9.58072e-05
8.29573e-05
6.61901e-05
4.79821e-05
3.10432e-05
1.79608e-05
1.08343e-05
0.00012367
0.000115657
0.000100907
8.15471e-05
6.03808e-05
4.05344e-05
2.50247e-05
1.63468e-05
0.000161325
0.000151962
0.000134701
0.000111961
8.704e-05
6.3697e-05
4.55689e-05
3.55707e-05
0.000218924
0.000208539
0.000189339
0.000164011
0.000136353
0.000110759
9.13965e-05
8.12562e-05
0.000296543
0.000286569
0.000267947
0.000243378
0.000216851
0.000192957
0.000175818
0.000167753
0.000388187
0.000381113
0.00036747
0.00034949
0.000330628
0.000314693
0.00030468
0.000301304
0.000479131
0.000477797
0.000474308
0.000469741
0.000465911
0.000464417
0.000465807
0.000468604
0.000546473
0.000552596
0.00056287
0.000576582
0.00059268
0.000609249
0.000623431
0.00063186
0.000566218
0.000579208
0.000603076
0.000635017
0.000670405
0.000703401
0.000727947
0.000739945
0.000525963
0.000543111
0.000576196
0.000620383
0.000667936
0.000710077
0.000739194
0.000751919
0.000434895
0.000452459
0.000487254
0.000533067
0.000580874
0.000621309
0.000647575
0.000658071
0.00031971
0.000334076
0.000362029
0.000397544
0.000433021
0.000461404
0.000478632
0.000484891
0.000207515
0.000216039
0.000231005
0.000248501
0.000264546
0.000276191
0.00028252
0.00028451
0.000112773
0.000114595
0.000116239
0.000116835
0.000116188
0.000114917
0.000114075
0.000114268
3.53001e-05
3.45741e-05
3.24692e-05
2.93184e-05
2.58348e-05
2.29874e-05
2.15749e-05
2.16965e-05
9.42832e-05
8.7893e-05
7.61671e-05
6.08932e-05
4.43592e-05
2.9056e-05
1.73454e-05
1.10901e-05
0.000102514
9.54866e-05
8.25868e-05
6.57388e-05
4.74229e-05
3.03614e-05
1.71638e-05
9.95976e-06
0.000123317
0.000115259
0.000100418
8.09251e-05
5.95989e-05
3.95864e-05
2.39303e-05
1.51567e-05
0.000160948
0.000151514
0.000134117
0.000111197
8.60848e-05
6.25707e-05
4.43165e-05
3.42486e-05
0.000218626
0.000208157
0.000188807
0.000163305
0.000135505
0.00010984
9.04875e-05
8.03951e-05
0.000296483
0.000286446
0.000267731
0.000243104
0.000216622
0.000192914
0.000176067
0.000168266
0.000388486
0.00038142
0.000367837
0.000350046
0.00033156
0.000316179
0.000306791
0.000303892
0.000479709
0.000478489
0.000475275
0.000471201
0.000468072
0.000467401
0.000469557
0.000472836
0.000546932
0.000553253
0.00056396
0.000578323
0.000595185
0.000612465
0.00062713
0.000635726
0.000566003
0.000579186
0.000603448
0.000635863
0.000671633
0.000704756
0.000729127
0.000740813
0.00052486
0.000542093
0.000575295
0.000619445
0.000666652
0.000708106
0.000736359
0.000748422
0.000433367
0.000450859
0.000485366
0.000530521
0.000577267
0.000616402
0.00064146
0.000651249
0.00031855
0.000332702
0.000360043
0.000394511
0.00042863
0.000455629
0.000471798
0.000477574
0.000207121
0.000215362
0.000229667
0.000246202
0.000261178
0.000271895
0.000277651
0.000279458
0.000112854
0.000114454
0.000115694
0.000115811
0.000114743
0.00011321
0.00011229
0.000112504
3.53848e-05
3.45809e-05
3.23704e-05
2.9133e-05
2.56185e-05
2.28038e-05
2.14555e-05
2.16175e-05
9.40612e-05
8.76574e-05
7.58987e-05
6.05695e-05
4.39611e-05
2.8577e-05
1.68e-05
1.05107e-05
0.000102294
9.5245e-05
8.2296e-05
6.53684e-05
4.69484e-05
2.97743e-05
1.64791e-05
9.21747e-06
0.000123112
0.00011502
0.000100104
8.05018e-05
5.90428e-05
3.88939e-05
2.31202e-05
1.42716e-05
0.000160793
0.000151323
0.000133851
0.000110833
8.56208e-05
6.20271e-05
4.37246e-05
3.36357e-05
0.000218589
0.000208107
0.000188737
0.000163235
0.000135486
0.000109941
9.0756e-05
8.08063e-05
0.000296625
0.000286632
0.000268021
0.0002436
0.00021746
0.00019422
0.000177887
0.000170475
0.000388767
0.000381824
0.00036852
0.000351212
0.000333422
0.000318887
0.000310334
0.000308012
0.000479897
0.000478857
0.000476061
0.000472674
0.00047045
0.000470761
0.000473765
0.000477538
0.000546642
0.000553118
0.000564217
0.000579189
0.000596751
0.000614644
0.000629675
0.00063834
0.000564976
0.000578192
0.000602584
0.000635139
0.00067091
0.000703789
0.00072769
0.000738901
0.000523343
0.00054045
0.000573366
0.000616935
0.000663209
0.000703457
0.000730482
0.000741726
0.000432137
0.000449384
0.00048321
0.000527154
0.000572263
0.000609618
0.000633162
0.000642134
0.000318287
0.000332132
0.000358591
0.000391635
0.000424016
0.000449331
0.000464267
0.000469491
0.000207687
0.000215607
0.000229156
0.000244608
0.000258407
0.000268127
0.000273286
0.000274897
0.000113392
0.000114781
0.000115688
0.000115439
0.000114084
0.000112417
0.000111511
0.000111786
3.55182e-05
3.46581e-05
3.24149e-05
2.91974e-05
2.57693e-05
2.30893e-05
2.18721e-05
2.21043e-05
9.38957e-05
8.74841e-05
7.57058e-05
6.03407e-05
4.36834e-05
2.82514e-05
1.64505e-05
1.01765e-05
0.000102151
9.5087e-05
8.21001e-05
6.51082e-05
4.66031e-05
2.934e-05
1.59778e-05
8.69359e-06
0.000123034
0.000114916
9.99401e-05
8.02441e-05
5.86684e-05
3.8399e-05
2.25211e-05
1.36015e-05
0.000160814
0.000151331
0.000133825
0.000110759
8.54997e-05
6.18789e-05
4.35746e-05
3.34936e-05
0.000218748
0.000208305
0.000189002
0.000163613
0.000136044
0.00011075
9.18545e-05
8.2139e-05
0.000296915
0.000287045
0.000268675
0.00024464
0.000219048
0.000196485
0.000180854
0.000173971
0.000389038
0.000382299
0.000369423
0.000352802
0.000335938
0.000322465
0.000314925
0.000313298
0.000479808
0.000478976
0.000476683
0.000474113
0.000472929
0.000474322
0.00047822
0.000482487
0.000545809
0.000552361
0.000563786
0.000579317
0.000597511
0.000615913
0.000631174
0.000639775
0.000563363
0.000576442
0.000600749
0.000633189
0.000668682
0.000701041
0.000724233
0.000734807
0.000521603
0.000538431
0.000570798
0.000613426
0.000658385
0.000697083
0.000722632
0.00073296
0.000431332
0.000448286
0.000481216
0.000523619
0.000566738
0.000602004
0.000623835
0.000631911
0.000318958
0.000332518
0.00035796
0.000389358
0.000419756
0.0004432
0.000456786
0.000461359
0.000209162
0.000216782
0.000229518
0.000243804
0.000256353
0.000265057
0.000269609
0.000270964
0.000114299
0.000115491
0.000116126
0.000115619
0.000114125
0.000112477
0.000111708
0.00011209
3.56531e-05
3.47498e-05
3.25432e-05
2.94571e-05
2.62486e-05
2.38231e-05
2.28326e-05
2.31924e-05
9.37903e-05
8.73829e-05
7.56103e-05
6.0247e-05
4.3587e-05
2.81576e-05
1.63899e-05
1.02138e-05
0.000102071
9.50029e-05
8.20015e-05
6.49788e-05
4.64289e-05
2.91194e-05
1.57351e-05
8.48639e-06
0.000123029
0.000114894
9.98704e-05
8.00947e-05
5.8417e-05
3.80396e-05
2.20614e-05
1.30465e-05
0.000160901
0.000151418
0.00013389
0.000110785
8.54853e-05
6.18396e-05
4.35312e-05
3.34437e-05
0.000218946
0.000208559
0.000189335
0.000164065
0.000136674
0.000111623
9.30181e-05
8.35718e-05
0.000297203
0.000287471
0.00026934
0.000245678
0.000220606
0.000198682
0.000183739
0.000177446
0.00038926
0.000382724
0.000370251
0.000354268
0.000338256
0.000325752
0.000319152
0.000318254
0.000479646
0.000478974
0.000477116
0.000475269
0.00047499
0.000477296
0.000481927
0.000486601
0.000544936
0.000551441
0.000563082
0.000579041
0.000597704
0.000616448
0.000631764
0.000640114
0.000561836
0.000574644
0.000598785
0.000631021
0.000666178
0.000697997
0.000720455
0.000730298
0.000520167
0.000536714
0.000568582
0.000610347
0.000654132
0.000691447
0.000715704
0.000725209
0.000431013
0.000447836
0.00048004
0.00052113
0.000562522
0.000595985
0.000616375
0.000623706
0.00032007
0.000333539
0.000358126
0.000388103
0.0004168
0.000438693
0.000451181
0.000455199
0.000210847
0.000218263
0.000230257
0.000243514
0.000255024
0.00026296
0.000267092
0.000268219
0.000115162
0.000116172
0.000116603
0.000115962
0.000114478
0.000113001
0.000112475
0.000113013
3.57068e-05
3.47598e-05
3.26468e-05
2.97716e-05
2.68576e-05
2.47482e-05
2.40218e-05
2.45555e-05
)
;

boundaryField
{
    inlet
    {
        type            zeroGradient;
    }
    outlet
    {
        type            fixedValue;
        value           uniform 0;
    }
    walls
    {
        type            zeroGradient;
    }
}


// ************************************************************************* //
