/*--------------------------------*- C++ -*----------------------------------*\
  =========                 |
  \\      /  F ield         | OpenFOAM: The Open Source CFD Toolbox
   \\    /   O peration     | Website:  https://openfoam.org
    \\  /    A nd           | Version:  6
     \\/     M anipulation  |
\*---------------------------------------------------------------------------*/
FoamFile
{
    version     2.0;
    format      ascii;
    class       volVectorField;
    location    "0";
    object      U;
}
// * * * * * * * * * * * * * * * * * * * * * * * * * * * * * * * * * * * * * //

dimensions      [0 1 -1 0 0 0 0];

internalField   nonuniform List<vector> 
1024
(
(9.79687e-07 25 1.47705e-08)
(2.84842e-06 25 4.43274e-08)
(4.35026e-06 25 9.50634e-08)
(5.19123e-06 25 1.53926e-07)
(5.21695e-06 25 2.09999e-07)
(4.40938e-06 25 2.5256e-07)
(2.90311e-06 25 2.70323e-07)
(1.00097e-06 25 2.41468e-07)
(1.07664e-06 25 1.30426e-08)
(3.12806e-06 25 4.40965e-08)
(4.77428e-06 25 9.78018e-08)
(5.69429e-06 25 1.60956e-07)
(5.71582e-06 25 2.22159e-07)
(4.81256e-06 25 2.697e-07)
(3.11313e-06 25 2.91629e-07)
(1.04496e-06 25 2.67725e-07)
(1.22586e-06 25 1.65037e-08)
(3.57437e-06 25 5.90768e-08)
(5.4758e-06 25 1.33245e-07)
(6.54765e-06 25 2.22122e-07)
(6.58159e-06 25 3.10017e-07)
(5.53787e-06 25 3.79854e-07)
(3.5661e-06 25 4.13457e-07)
(1.18946e-06 25 3.81378e-07)
(1.42836e-06 25 1.85359e-08)
(4.19207e-06 25 8.12084e-08)
(6.46127e-06 25 1.88931e-07)
(7.75387e-06 25 3.19559e-07)
(7.80882e-06 25 4.50259e-07)
(6.56477e-06 25 5.54734e-07)
(4.19704e-06 25 6.04523e-07)
(1.38478e-06 25 5.54695e-07)
(1.65973e-06 25 1.11794e-08)
(4.91978e-06 25 1.03306e-07)
(7.64475e-06 25 2.56971e-07)
(9.20776e-06 25 4.44141e-07)
(9.28383e-06 25 6.32073e-07)
(7.78384e-06 25 7.81108e-07)
(4.91654e-06 25 8.47706e-07)
(1.59346e-06 25 7.63361e-07)
(1.87405e-06 25 -1.91354e-08)
(5.63935e-06 25 1.10968e-07)
(8.85708e-06 25 3.18801e-07)
(1.0701e-05 25 5.70911e-07)
(1.0784e-05 25 8.22495e-07)
(8.99032e-06 25 1.01702e-06)
(5.57325e-06 25 1.09228e-06)
(1.75776e-06 25 9.49657e-07)
(2.00538e-06 25 -9.04595e-08)
(6.17396e-06 25 8.09621e-08)
(9.83564e-06 25 3.39884e-07)
(1.19064e-05 25 6.49336e-07)
(1.19614e-05 25 9.52188e-07)
(9.87351e-06 25 1.17481e-06)
(5.9567e-06 25 1.23766e-06)
(1.80525e-06 25 1.01447e-06)
(1.98145e-06 25 -2.15303e-07)
(6.31379e-06 25 -1.01342e-08)
(1.02499e-05 25 2.77606e-07)
(1.24092e-05 25 6.11482e-07)
(1.23819e-05 25 9.25772e-07)
(1.00649e-05 25 1.13659e-06)
(5.85049e-06 25 1.15734e-06)
(1.67588e-06 25 8.54361e-07)
(1.75639e-06 25 -3.80448e-07)
(5.88748e-06 25 -1.62447e-07)
(9.78953e-06 25 1.09263e-07)
(1.18166e-05 25 4.09277e-07)
(1.16534e-05 25 6.73152e-07)
(9.27066e-06 25 8.23325e-07)
(5.14173e-06 25 7.83033e-07)
(1.36631e-06 25 4.5096e-07)
(1.35204e-06 25 -5.26282e-07)
(4.86652e-06 25 -3.19512e-07)
(8.31053e-06 25 -1.2219e-07)
(9.94024e-06 25 7.66793e-08)
(9.62061e-06 25 2.2944e-07)
(7.43232e-06 25 2.77677e-07)
(3.90872e-06 25 1.89483e-07)
(9.52822e-07 25 -7.81168e-08)
(8.64879e-07 25 -5.63933e-07)
(3.41288e-06 25 -3.93909e-07)
(5.95753e-06 25 -3.12824e-07)
(6.96916e-06 25 -2.63793e-07)
(6.52729e-06 25 -2.67704e-07)
(4.82693e-06 25 -3.31531e-07)
(2.40806e-06 25 -4.39797e-07)
(5.488e-07 25 -5.64909e-07)
(4.18049e-07 25 -4.37341e-07)
(1.81053e-06 25 -3.48339e-07)
(3.14561e-06 25 -3.98814e-07)
(3.45518e-06 25 -5.07041e-07)
(2.9964e-06 25 -6.48988e-07)
(2.02911e-06 25 -7.97791e-07)
(9.80064e-07 25 -8.81727e-07)
(2.45303e-07 25 -8.30615e-07)
(9.09376e-08 25 -1.8781e-07)
(3.64828e-07 25 -2.16212e-07)
(4.56955e-07 25 -3.72751e-07)
(1.95247e-07 25 -5.86088e-07)
(-1.39858e-07 25 -8.12286e-07)
(-2.87719e-07 25 -9.78059e-07)
(-2.94911e-08 25 -1.00494e-06)
(1.06187e-07 25 -8.08018e-07)
(-1.60278e-07 25 -6.8499e-09)
(-6.70174e-07 25 -1.0685e-07)
(-1.35783e-06 25 -2.97576e-07)
(-1.88981e-06 25 -5.26808e-07)
(-2.00886e-06 25 -7.2969e-07)
(-1.52141e-06 25 -8.40699e-07)
(-4.45385e-07 25 -8.09313e-07)
(1.0904e-07 25 -5.4771e-07)
(-2.97636e-07 25 4.07462e-08)
(-1.05546e-06 25 -4.53853e-08)
(-1.84641e-06 25 -1.79916e-07)
(-2.28767e-06 25 -3.2278e-07)
(-2.20217e-06 25 -4.30797e-07)
(-1.50997e-06 25 -4.71144e-07)
(-3.35131e-07 25 -4.17788e-07)
(1.71758e-07 25 -1.99474e-07)
(-1.81094e-07 25 2.24655e-08)
(-5.79378e-07 25 -5.19417e-09)
(-9.35213e-07 25 -4.21281e-08)
(-1.09463e-06 25 -7.59898e-08)
(-9.95244e-07 25 -9.64174e-08)
(-6.29769e-07 25 -9.74056e-08)
(-4.78807e-08 25 -7.15488e-08)
(1.44349e-07 25 1.92939e-09)
(1.00924e-06 25 2.38319e-08)
(2.92872e-06 25 6.46914e-08)
(4.45986e-06 25 1.35101e-07)
(5.30617e-06 25 2.16248e-07)
(5.31558e-06 25 2.92369e-07)
(4.46971e-06 25 3.48859e-07)
(2.89202e-06 25 3.72011e-07)
(9.72115e-07 25 3.41554e-07)
(1.10769e-06 25 2.19718e-08)
(3.21282e-06 25 6.60274e-08)
(4.89114e-06 25 1.42548e-07)
(5.81865e-06 25 2.32146e-07)
(5.82457e-06 25 3.17842e-07)
(4.88203e-06 25 3.83247e-07)
(3.11116e-06 25 4.13045e-07)
(1.02106e-06 25 3.88169e-07)
(1.26843e-06 25 2.85627e-08)
(3.69111e-06 25 8.92338e-08)
(5.63885e-06 25 1.95653e-07)
(6.72442e-06 25 3.22788e-07)
(6.73932e-06 25 4.46922e-07)
(5.64131e-06 25 5.43761e-07)
(3.56763e-06 25 5.89815e-07)
(1.15738e-06 25 5.56453e-07)
(1.49103e-06 25 3.45211e-08)
(4.36246e-06 25 1.24292e-07)
(6.69962e-06 25 2.80075e-07)
(8.0152e-06 25 4.68538e-07)
(8.044e-06 25 6.54636e-07)
(6.71904e-06 25 8.00448e-07)
(4.197e-06 25 8.68666e-07)
(1.33495e-06 25 8.14835e-07)
(1.75185e-06 25 2.89899e-08)
(5.16557e-06 25 1.61403e-07)
(7.98558e-06 25 3.85178e-07)
(9.58287e-06 25 6.57092e-07)
(9.6208e-06 25 9.26119e-07)
(7.99948e-06 25 1.13442e-06)
(4.89879e-06 25 1.22423e-06)
(1.50912e-06 25 1.12711e-06)
(2.00416e-06 25 -7.86724e-09)
(5.97728e-06 25 1.79028e-07)
(9.31702e-06 25 4.82801e-07)
(1.12047e-05 25 8.50222e-07)
(1.12301e-05 25 1.21041e-06)
(9.2601e-06 25 1.48031e-06)
(5.50589e-06 25 1.57693e-06)
(1.61514e-06 25 1.40227e-06)
(2.1768e-06 25 -1.03228e-07)
(6.60431e-06 25 1.41508e-07)
(1.0404e-05 25 5.19527e-07)
(1.25187e-05 25 9.6924e-07)
(1.24869e-05 25 1.3992e-06)
(1.0159e-05 25 1.70114e-06)
(5.79636e-06 25 1.76985e-06)
(1.58206e-06 25 1.48363e-06)
(2.18662e-06 25 -2.76691e-07)
(6.8067e-06 25 1.20756e-08)
(1.08715e-05 25 4.28742e-07)
(1.30573e-05 25 9.08003e-07)
(1.2907e-05 25 1.34401e-06)
(1.02965e-05 25 1.61466e-06)
(5.56827e-06 25 1.6097e-06)
(1.3729e-06 25 1.21124e-06)
(1.97439e-06 25 -5.08817e-07)
(6.37719e-06 25 -2.11484e-07)
(1.03612e-05 25 1.74612e-07)
(1.23805e-05 25 5.93273e-07)
(1.20674e-05 25 9.40878e-07)
(9.38055e-06 25 1.10733e-06)
(4.76937e-06 25 1.00474e-06)
(1.03424e-06 25 5.67622e-07)
(1.55881e-06 25 -7.06384e-07)
(5.27061e-06 25 -4.44244e-07)
(8.70672e-06 25 -1.75421e-07)
(1.02919e-05 25 8.53079e-08)
(9.82161e-06 25 2.56091e-07)
(7.39236e-06 25 2.70712e-07)
(3.55293e-06 25 1.01999e-07)
(6.85223e-07 25 -2.44265e-07)
(1.0349e-06 25 -7.36041e-07)
(3.66399e-06 25 -5.43374e-07)
(6.08765e-06 25 -4.52316e-07)
(7.01428e-06 25 -4.22484e-07)
(6.45956e-06 25 -4.79211e-07)
(4.65483e-06 25 -6.21469e-07)
(2.17469e-06 25 -8.03695e-07)
(4.23689e-07 25 -9.59514e-07)
(5.07052e-07 25 -5.40765e-07)
(1.84906e-06 25 -4.68239e-07)
(2.98691e-06 25 -5.77687e-07)
(3.205e-06 25 -7.75671e-07)
(2.70565e-06 25 -1.02535e-06)
(1.79637e-06 25 -1.26346e-06)
(9.47239e-07 25 -1.38475e-06)
(2.96415e-07 25 -1.30772e-06)
(6.25361e-08 25 -2.10052e-07)
(1.79888e-07 25 -2.82068e-07)
(8.70788e-08 25 -5.35204e-07)
(-2.44289e-07 25 -8.73507e-07)
(-5.3183e-07 25 -1.21357e-06)
(-4.80378e-07 25 -1.44435e-06)
(1.4055e-07 25 -1.46655e-06)
(3.03114e-07 25 -1.20249e-06)
(-2.60278e-07 25 3.26347e-08)
(-9.609e-07 25 -1.16485e-07)
(-1.77778e-06 25 -4.05671e-07)
(-2.32192e-06 25 -7.43396e-07)
(-2.32275e-06 25 -1.0287e-06)
(-1.60103e-06 25 -1.17012e-06)
(-1.52395e-07 25 -1.10769e-06)
(3.70643e-07 25 -7.74994e-07)
(-3.83767e-07 25 9.40497e-08)
(-1.27612e-06 25 -2.80534e-08)
(-2.12381e-06 25 -2.27664e-07)
(-2.53855e-06 25 -4.34454e-07)
(-2.35053e-06 25 -5.83635e-07)
(-1.49697e-06 25 -6.29973e-07)
(-6.34601e-08 25 -5.44111e-07)
(3.90072e-07 25 -2.79709e-07)
(-2.08753e-07 25 4.94841e-08)
(-6.43972e-07 25 7.44445e-09)
(-1.00601e-06 25 -5.08826e-08)
(-1.14892e-06 25 -1.03887e-07)
(-1.01666e-06 25 -1.34634e-07)
(-6.04901e-07 25 -1.34081e-07)
(5.14544e-08 25 -9.44022e-08)
(2.17827e-07 25 -5.89371e-09)
(1.02055e-06 25 1.50048e-08)
(2.95969e-06 25 3.09646e-08)
(4.50182e-06 25 5.96889e-08)
(5.3485e-06 25 9.20542e-08)
(5.34956e-06 25 1.208e-07)
(4.48902e-06 25 1.40578e-07)
(2.89581e-06 25 1.48487e-07)
(9.70513e-07 25 1.47372e-07)
(1.12069e-06 25 1.56454e-08)
(3.24864e-06 25 3.44684e-08)
(4.9404e-06 25 6.85333e-08)
(5.86959e-06 25 1.07823e-07)
(5.86693e-06 25 1.43757e-07)
(4.90776e-06 25 1.69631e-07)
(3.11805e-06 25 1.81326e-07)
(1.02009e-06 25 1.81608e-07)
(1.28653e-06 25 2.14428e-08)
(3.74146e-06 25 4.79387e-08)
(5.70936e-06 25 9.67635e-08)
(6.79892e-06 25 1.54527e-07)
(6.80256e-06 25 2.08642e-07)
(5.68076e-06 25 2.48502e-07)
(3.5788e-06 25 2.67324e-07)
(1.1561e-06 25 2.67954e-07)
(1.51813e-06 25 2.94526e-08)
(4.43762e-06 25 6.95789e-08)
(6.80552e-06 25 1.43219e-07)
(8.12843e-06 25 2.31571e-07)
(8.14073e-06 25 3.15199e-07)
(6.7788e-06 25 3.76735e-07)
(4.21143e-06 25 4.04583e-07)
(1.33095e-06 25 4.01833e-07)
(1.79214e-06 25 3.55457e-08)
(5.27596e-06 25 9.5576e-08)
(8.14044e-06 25 2.03802e-07)
(9.7487e-06 25 3.3404e-07)
(9.76116e-06 25 4.5682e-07)
(8.08195e-06 25 5.447e-07)
(4.90923e-06 25 5.78791e-07)
(1.49635e-06 25 5.62659e-07)
(2.06095e-06 25 3.01572e-08)
(6.13001e-06 25 1.14623e-07)
(9.52828e-06 25 2.63031e-07)
(1.14286e-05 25 4.4012e-07)
(1.14141e-05 25 6.0347e-07)
(9.35685e-06 25 7.12889e-07)
(5.49522e-06 25 7.40787e-07)
(1.58309e-06 25 6.9289e-07)
(2.25012e-06 25 -9.36386e-10)
(6.79672e-06 25 1.07026e-07)
(1.06634e-05 25 2.9039e-07)
(1.27861e-05 25 5.03759e-07)
(1.26934e-05 25 6.90947e-07)
(1.02442e-05 25 7.99603e-07)
(5.73918e-06 25 7.96404e-07)
(1.51903e-06 25 6.94908e-07)
(2.27022e-06 25 -6.90224e-08)
(7.01923e-06 25 5.18452e-08)
(1.11458e-05 25 2.47493e-07)
(1.33244e-05 25 4.6315e-07)
(1.30885e-05 25 6.33119e-07)
(1.03306e-05 25 7.00729e-07)
(5.44707e-06 25 6.37671e-07)
(1.27742e-06 25 4.77166e-07)
(2.05372e-06 25 -1.65686e-07)
(6.57091e-06 25 -5.41943e-08)
(1.05943e-05 25 1.13391e-07)
(1.25829e-05 25 2.7816e-07)
(1.21675e-05 25 3.77206e-07)
(9.33452e-06 25 3.64477e-07)
(4.60202e-06 25 2.33706e-07)
(9.29199e-07 25 5.0244e-08)
(1.61418e-06 25 -2.42345e-07)
(5.39748e-06 25 -1.68817e-07)
(8.84008e-06 25 -7.46888e-08)
(1.03718e-05 25 -8.77224e-09)
(9.80602e-06 25 -2.01994e-08)
(7.27823e-06 25 -1.18036e-07)
(3.39374e-06 25 -2.81119e-07)
(6.06558e-07 25 -4.22035e-07)
(1.05755e-06 25 -2.28845e-07)
(3.6966e-06 25 -2.06219e-07)
(6.07842e-06 25 -2.12552e-07)
(6.94227e-06 25 -2.72825e-07)
(6.32831e-06 25 -3.94886e-07)
(4.50244e-06 25 -5.54929e-07)
(2.07002e-06 25 -6.97938e-07)
(3.92981e-07 25 -7.5719e-07)
(4.90575e-07 25 -1.20595e-07)
(1.77361e-06 25 -1.53766e-07)
(2.83818e-06 25 -2.62889e-07)
(3.00751e-06 25 -4.28395e-07)
(2.50861e-06 25 -6.20852e-07)
(1.66972e-06 25 -7.80025e-07)
(9.35809e-07 25 -8.51294e-07)
(3.22334e-07 25 -8.14995e-07)
(1.89217e-08 25 1.05338e-08)
(3.96765e-08 25 -6.0827e-08)
(-1.34485e-07 25 -2.23671e-07)
(-4.83118e-07 25 -4.29423e-07)
(-7.10698e-07 25 -6.13024e-07)
(-5.40702e-07 25 -7.15289e-07)
(2.12363e-07 25 -7.06329e-07)
(3.70245e-07 25 -6.03079e-07)
(-3.09398e-07 25 1.05378e-07)
(-1.10848e-06 25 2.6253e-08)
(-1.98474e-06 25 -1.32081e-07)
(-2.51283e-06 25 -3.00916e-07)
(-2.43558e-06 25 -4.22153e-07)
(-1.6004e-06 25 -4.57757e-07)
(-5.02601e-08 25 -3.99866e-07)
(4.41732e-07 25 -2.90088e-07)
(-4.19739e-07 25 1.14866e-07)
(-1.37718e-06 25 5.53353e-08)
(-2.25281e-06 25 -4.7197e-08)
(-2.64364e-06 25 -1.42388e-07)
(-2.39769e-06 25 -1.9586e-07)
(-1.47045e-06 25 -1.91332e-07)
(1.51332e-08 25 -1.31128e-07)
(4.36159e-07 25 -6.06948e-08)
(-2.23133e-07 25 5.26122e-08)
(-6.79745e-07 25 2.84288e-08)
(-1.04654e-06 25 -5.09363e-09)
(-1.17838e-06 25 -3.25018e-08)
(-1.02544e-06 25 -4.33853e-08)
(-5.89538e-07 25 -3.42798e-08)
(8.03064e-08 25 -8.73347e-09)
(2.32857e-07 25 1.42578e-08)
(1.0252e-06 25 1.00778e-08)
(2.9734e-06 25 1.61128e-08)
(4.52095e-06 25 2.73142e-08)
(5.36728e-06 25 3.85872e-08)
(5.3641e-06 25 4.67541e-08)
(4.49739e-06 25 5.03831e-08)
(2.89881e-06 25 4.98298e-08)
(9.71e-07 25 4.82985e-08)
(1.12651e-06 25 1.17723e-08)
(3.26571e-06 25 1.94096e-08)
(4.9645e-06 25 3.37016e-08)
(5.89388e-06 25 4.87713e-08)
(5.88638e-06 25 6.05039e-08)
(4.9196e-06 25 6.66336e-08)
(3.12313e-06 25 6.72184e-08)
(1.02134e-06 25 6.63972e-08)
(1.29493e-06 25 1.70127e-08)
(3.76643e-06 25 2.85193e-08)
(5.74544e-06 25 5.0638e-08)
(6.8363e-06 25 7.50198e-08)
(6.83329e-06 25 9.50437e-08)
(5.69999e-06 25 1.06494e-07)
(3.58708e-06 25 1.08816e-07)
(1.15801e-06 25 1.07553e-07)
(1.53116e-06 25 2.53763e-08)
(4.47623e-06 25 4.39503e-08)
(6.86161e-06 25 7.93017e-08)
(8.18718e-06 25 1.18957e-07)
(8.18916e-06 25 1.51989e-07)
(6.80842e-06 25 1.7082e-07)
(4.2221e-06 25 1.7381e-07)
(1.3322e-06 25 1.68778e-07)
(1.81188e-06 25 3.52221e-08)
(5.33382e-06 25 6.39729e-08)
(8.22405e-06 25 1.17428e-07)
(9.83588e-06 25 1.77189e-07)
(9.83146e-06 25 2.259e-07)
(8.12145e-06 25 2.51026e-07)
(4.91675e-06 25 2.49375e-07)
(1.49299e-06 25 2.32307e-07)
(2.08862e-06 25 4.15346e-08)
(6.21016e-06 25 8.20071e-08)
(9.64252e-06 25 1.55257e-07)
(1.15451e-05 25 2.35025e-07)
(1.15029e-05 25 2.95643e-07)
(9.39742e-06 25 3.18574e-07)
(5.48589e-06 25 2.99476e-07)
(1.56724e-06 25 2.55416e-07)
(2.28476e-06 25 3.6652e-08)
(6.89563e-06 25 8.66566e-08)
(1.08007e-05 25 1.73927e-07)
(1.29193e-05 25 2.63007e-07)
(1.27828e-05 25 3.19554e-07)
(1.02644e-05 25 3.20345e-07)
(5.69167e-06 25 2.62896e-07)
(1.48056e-06 25 1.74189e-07)
(2.30748e-06 25 1.48105e-08)
(7.12322e-06 25 6.66922e-08)
(1.12828e-05 25 1.51334e-07)
(1.3443e-05 25 2.2475e-07)
(1.31446e-05 25 2.47694e-07)
(1.0301e-05 25 1.98162e-07)
(5.3447e-06 25 8.25619e-08)
(1.2124e-06 25 -5.52203e-08)
(2.08588e-06 25 -1.9243e-08)
(6.65627e-06 25 2.2098e-08)
(1.06936e-05 25 7.82414e-08)
(1.26443e-05 25 1.02617e-07)
(1.21538e-05 25 6.06999e-08)
(9.23705e-06 25 -5.81621e-08)
(4.45513e-06 25 -2.29488e-07)
(8.50778e-07 25 -3.88809e-07)
(1.63234e-06 25 -4.22148e-08)
(5.43826e-06 25 -2.41607e-08)
(8.86677e-06 25 -2.06405e-08)
(1.03464e-05 25 -6.79795e-08)
(9.71235e-06 25 -1.83355e-07)
(7.13144e-06 25 -3.56126e-07)
(3.24893e-06 25 -5.43219e-07)
(5.44306e-07 25 -6.67679e-07)
(1.05753e-06 25 -1.76222e-08)
(3.68028e-06 25 -2.72986e-08)
(6.02104e-06 25 -8.33046e-08)
(6.83195e-06 25 -1.94963e-07)
(6.17745e-06 25 -3.58723e-07)
(4.35178e-06 25 -5.38903e-07)
(1.97243e-06 25 -6.83607e-07)
(3.64437e-07 25 -7.38296e-07)
(4.73881e-07 25 5.51429e-08)
(1.70676e-06 25 2.18835e-08)
(2.71228e-06 25 -7.71824e-08)
(2.84704e-06 25 -2.22454e-07)
(2.35402e-06 25 -3.81526e-07)
(1.56593e-06 25 -5.11136e-07)
(9.12269e-07 25 -5.731e-07)
(3.32714e-07 25 -5.53483e-07)
(-8.8247e-09 25 1.30913e-07)
(-5.4317e-08 25 8.3041e-08)
(-2.81517e-07 25 -2.66458e-08)
(-6.33642e-07 25 -1.54403e-07)
(-8.17695e-07 25 -2.58137e-07)
(-5.73683e-07 25 -3.04996e-07)
(2.5276e-07 25 -2.83689e-07)
(4.06364e-07 25 -2.18629e-07)
(-3.39403e-07 25 1.61159e-07)
(-1.19836e-06 25 1.11334e-07)
(-2.10495e-06 25 2.46611e-08)
(-2.61199e-06 25 -5.22204e-08)
(-2.47959e-06 25 -8.58219e-08)
(-1.57874e-06 25 -6.2062e-08)
(1.52727e-08 25 6.5338e-09)
(4.80421e-07 25 7.32848e-08)
(-4.43298e-07 25 1.23268e-07)
(-1.43819e-06 25 8.68649e-08)
(-2.32153e-06 25 3.95788e-08)
(-2.68721e-06 25 1.26324e-08)
(-2.39948e-06 25 2.35253e-08)
(-1.43223e-06 25 7.234e-08)
(6.71773e-08 25 1.39115e-07)
(4.60505e-07 25 1.8332e-07)
(-2.32937e-07 25 4.4677e-08)
(-7.01677e-07 25 3.02755e-08)
(-1.06694e-06 25 1.72309e-08)
(-1.18721e-06 25 1.49102e-08)
(-1.01844e-06 25 2.80341e-08)
(-5.70249e-07 25 5.42527e-08)
(9.99919e-08 25 8.3486e-08)
(2.40818e-07 25 9.76872e-08)
(1.02658e-06 25 6.87291e-09)
(2.97693e-06 25 6.87134e-09)
(4.52429e-06 25 4.83225e-09)
(5.36794e-06 25 -1.20778e-09)
(5.36136e-06 25 -1.13496e-08)
(4.4921e-06 25 -2.42464e-08)
(2.89372e-06 25 -3.71779e-08)
(9.68982e-07 25 -4.54328e-08)
(1.12833e-06 25 9.22446e-09)
(3.27057e-06 25 9.39328e-09)
(4.96976e-06 25 7.63535e-09)
(5.89639e-06 25 1.60108e-09)
(5.88479e-06 25 -9.26013e-09)
(4.91448e-06 25 -2.38457e-08)
(3.11782e-06 25 -3.92954e-08)
(1.01927e-06 25 -4.96678e-08)
(1.29804e-06 25 1.44056e-08)
(3.77509e-06 25 1.57636e-08)
(5.75586e-06 25 1.58397e-08)
(6.84332e-06 25 1.06702e-08)
(6.83403e-06 25 -1.51953e-09)
(5.69454e-06 25 -2.00446e-08)
(3.57985e-06 25 -4.10963e-08)
(1.15484e-06 25 -5.62118e-08)
(1.5367e-06 25 2.30384e-08)
(4.49155e-06 25 2.69198e-08)
(6.88052e-06 25 3.01673e-08)
(8.20112e-06 25 2.6121e-08)
(8.1926e-06 25 1.08118e-08)
(6.80062e-06 25 -1.57322e-08)
(4.20938e-06 25 -4.80184e-08)
(1.32592e-06 25 -7.32117e-08)
(1.82089e-06 25 3.52357e-08)
(5.35817e-06 25 4.2535e-08)
(8.25365e-06 25 4.91862e-08)
(9.85718e-06 25 4.4463e-08)
(9.835e-06 25 2.10918e-08)
(8.10543e-06 25 -2.17372e-08)
(4.89051e-06 25 -7.57278e-08)
(1.47928e-06 25 -1.21031e-07)
(2.10142e-06 25 4.93887e-08)
(6.24374e-06 25 5.98432e-08)
(9.68129e-06 25 6.75082e-08)
(1.1569e-05 25 5.61691e-08)
(1.14977e-05 25 1.43272e-08)
(9.36068e-06 25 -5.91986e-08)
(5.43206e-06 25 -1.51269e-07)
(1.53903e-06 25 -2.31509e-07)
(2.30012e-06 25 6.32182e-08)
(6.93399e-06 25 7.44347e-08)
(1.08397e-05 25 7.62586e-08)
(1.29317e-05 25 4.6019e-08)
(1.27507e-05 25 -3.16256e-08)
(1.01875e-05 25 -1.55966e-07)
(5.59303e-06 25 -3.05311e-07)
(1.43032e-06 25 -4.34198e-07)
(2.3221e-06 25 7.64949e-08)
(7.15575e-06 25 8.38962e-08)
(1.13039e-05 25 6.83083e-08)
(1.34208e-05 25 1.63371e-09)
(1.3062e-05 25 -1.31679e-07)
(1.01654e-05 25 -3.24225e-07)
(5.19368e-06 25 -5.40022e-07)
(1.13963e-06 25 -7.14353e-07)
(2.09506e-06 25 9.47952e-08)
(6.66839e-06 25 9.33692e-08)
(1.06748e-05 25 4.82803e-08)
(1.25653e-05 25 -6.856e-08)
(1.20067e-05 25 -2.6568e-07)
(9.04433e-06 25 -5.21808e-07)
(4.27138e-06 25 -7.8328e-07)
(7.69878e-07 25 -9.68271e-07)
(1.63223e-06 25 1.28968e-07)
(5.41905e-06 25 1.16541e-07)
(8.79627e-06 25 3.87757e-08)
(1.0209e-05 25 -1.22955e-07)
(9.51787e-06 25 -3.60731e-07)
(6.91837e-06 25 -6.37026e-07)
(3.08219e-06 25 -8.86404e-07)
(4.82099e-07 25 -1.02517e-06)
(1.04787e-06 25 1.86467e-07)
(3.63092e-06 25 1.654e-07)
(5.91076e-06 25 6.7417e-08)
(6.66685e-06 25 -1.04906e-07)
(5.98437e-06 25 -3.2784e-07)
(4.17756e-06 25 -5.53656e-07)
(1.87063e-06 25 -7.22616e-07)
(3.38292e-07 25 -7.78445e-07)
(4.57316e-07 25 2.47927e-07)
(1.64128e-06 25 2.21526e-07)
(2.59384e-06 25 1.28244e-07)
(2.70317e-06 25 -7.42092e-09)
(2.21993e-06 25 -1.52496e-07)
(1.47815e-06 25 -2.67867e-07)
(8.93462e-07 25 -3.17913e-07)
(3.41951e-07 25 -2.95481e-07)
(-2.89505e-08 25 2.67382e-07)
(-1.17882e-07 25 2.37421e-07)
(-3.71929e-07 25 1.73571e-07)
(-7.14609e-07 25 1.11161e-07)
(-8.61291e-07 25 7.62699e-08)
(-5.66254e-07 25 8.57608e-08)
(2.98731e-07 25 1.42163e-07)
(4.35306e-07 25 2.06354e-07)
(-3.59223e-07 25 2.1546e-07)
(-1.24498e-06 25 1.84575e-07)
(-2.14829e-06 25 1.63428e-07)
(-2.62332e-06 25 1.74959e-07)
(-2.44542e-06 25 2.32956e-07)
(-1.50804e-06 25 3.32241e-07)
(8.50867e-08 25 4.42473e-07)
(5.08483e-07 25 5.07893e-07)
(-4.56142e-07 25 1.13576e-07)
(-1.46086e-06 25 9.78894e-08)
(-2.32705e-06 25 1.07388e-07)
(-2.65969e-06 25 1.56389e-07)
(-2.33798e-06 25 2.45245e-07)
(-1.35486e-06 25 3.57513e-07)
(1.26113e-07 25 4.58177e-07)
(4.80363e-07 25 5.02623e-07)
(-2.37535e-07 25 2.73873e-08)
(-7.07191e-07 25 2.33729e-08)
(-1.06191e-06 25 3.418e-08)
(-1.16758e-06 25 6.33569e-08)
(-9.86096e-07 25 1.08605e-07)
(-5.34086e-07 25 1.60875e-07)
(1.23741e-07 25 2.03713e-07)
(2.47058e-07 25 2.15813e-07)
(1.0252e-06 25 6.13363e-09)
(2.97136e-06 25 1.94428e-09)
(4.51287e-06 25 -1.11184e-08)
(5.3511e-06 25 -3.28203e-08)
(5.34107e-06 25 -6.06715e-08)
(4.47156e-06 25 -9.10096e-08)
(2.87763e-06 25 -1.19288e-07)
(9.62746e-07 25 -1.38807e-07)
(1.12668e-06 25 1.03282e-08)
(3.26412e-06 25 4.98633e-09)
(4.95671e-06 25 -1.11964e-08)
(5.87698e-06 25 -3.77907e-08)
(5.86093e-06 25 -7.21868e-08)
(4.88956e-06 25 -1.10384e-07)
(3.09731e-06 25 -1.47698e-07)
(1.01097e-06 25 -1.77467e-07)
(1.29629e-06 25 1.63584e-08)
(3.76787e-06 25 9.75424e-09)
(5.74034e-06 25 -1.06512e-08)
(6.81894e-06 25 -4.52475e-08)
(6.80258e-06 25 -9.13741e-08)
(5.66042e-06 25 -1.44035e-07)
(3.55091e-06 25 -1.96466e-07)
(1.1429e-06 25 -2.38355e-07)
(1.53504e-06 25 2.59251e-08)
(4.48336e-06 25 1.77325e-08)
(6.86081e-06 25 -9.56524e-09)
(8.16782e-06 25 -5.78174e-08)
(8.14731e-06 25 -1.24452e-07)
(6.74959e-06 25 -2.0264e-07)
(4.16462e-06 25 -2.81836e-07)
(1.30701e-06 25 -3.4582e-07)
(1.81918e-06 25 4.08639e-08)
(5.34777e-06 25 2.98656e-08)
(8.22598e-06 25 -9.08731e-09)
(9.80779e-06 25 -8.03065e-08)
(9.76526e-06 25 -1.81441e-07)
(8.02463e-06 25 -3.0261e-07)
(4.81746e-06 25 -4.26987e-07)
(1.44768e-06 25 -5.28605e-07)
(2.09908e-06 25 6.2951e-08)
(6.22828e-06 25 4.71842e-08)
(9.63885e-06 25 -1.04703e-08)
(1.14919e-05 25 -1.17884e-07)
(1.13875e-05 25 -2.7275e-07)
(9.23182e-06 25 -4.60094e-07)
(5.31358e-06 25 -6.53125e-07)
(1.487e-06 25 -8.11123e-07)
(2.29598e-06 25 9.53831e-08)
(6.90867e-06 25 7.28749e-08)
(1.07723e-05 25 -1.1897e-08)
(1.28114e-05 25 -1.70847e-07)
(1.25808e-05 25 -4.00399e-07)
(9.99076e-06 25 -6.7697e-07)
(5.41343e-06 25 -9.58744e-07)
(1.35168e-06 25 -1.18478e-06)
(2.31489e-06 25 1.44086e-07)
(7.11503e-06 25 1.14807e-07)
(1.12006e-05 25 -3.27975e-09)
(1.3243e-05 25 -2.24456e-07)
(1.28187e-05 25 -5.40029e-07)
(9.89266e-06 25 -9.12808e-07)
(4.95457e-06 25 -1.28068e-06)
(1.03807e-06 25 -1.55945e-06)
(2.08445e-06 25 2.16553e-07)
(6.60975e-06 25 1.85369e-07)
(1.05317e-05 25 3.71353e-08)
(1.23303e-05 25 -2.39401e-07)
(1.17005e-05 25 -6.2372e-07)
(8.71945e-06 25 -1.06059e-06)
(4.00867e-06 25 -1.46733e-06)
(6.65787e-07 25 -1.74393e-06)
(1.61991e-06 25 3.13577e-07)
(5.34807e-06 25 2.90681e-07)
(8.62727e-06 25 1.32021e-07)
(9.94686e-06 25 -1.62693e-07)
(9.19827e-06 25 -5.55373e-07)
(6.60577e-06 25 -9.76005e-07)
(2.86078e-06 25 -1.33417e-06)
(4.05541e-07 25 -1.5363e-06)
(1.03646e-06 25 4.14412e-07)
(3.56123e-06 25 4.0719e-07)
(5.75074e-06 25 2.7084e-07)
(6.43669e-06 25 2.29007e-08)
(5.7287e-06 25 -2.87691e-07)
(3.957e-06 25 -5.91138e-07)
(1.74764e-06 25 -8.14999e-07)
(3.08607e-07 25 -9.03841e-07)
(4.4748e-07 25 4.6842e-07)
(1.58708e-06 25 4.71561e-07)
(2.48333e-06 25 3.84425e-07)
(2.5663e-06 25 2.45859e-07)
(2.09357e-06 25 9.47062e-08)
(1.40052e-06 25 -2.3825e-08)
(8.84656e-07 25 -6.70652e-08)
(3.55147e-07 25 -5.292e-08)
(-3.87849e-08 25 4.179e-07)
(-1.48128e-07 25 4.16806e-07)
(-4.07777e-07 25 3.9957e-07)
(-7.30942e-07 25 3.96429e-07)
(-8.43096e-07 25 4.23732e-07)
(-5.07789e-07 25 4.96559e-07)
(3.73353e-07 25 6.02483e-07)
(4.70555e-07 25 6.83469e-07)
(-3.70288e-07 25 2.64922e-07)
(-1.25039e-06 25 2.55962e-07)
(-2.11457e-06 25 2.99821e-07)
(-2.54247e-06 25 4.03486e-07)
(-2.32231e-06 25 5.6624e-07)
(-1.36922e-06 25 7.59641e-07)
(1.90925e-07 25 9.42318e-07)
(5.4584e-07 25 1.04629e-06)
(-4.58985e-07 25 8.76202e-08)
(-1.44438e-06 25 8.96916e-08)
(-2.26303e-06 25 1.61971e-07)
(-2.54935e-06 25 3.01161e-07)
(-2.19835e-06 25 4.8862e-07)
(-1.2193e-06 25 6.89091e-07)
(2.12287e-07 25 8.53735e-07)
(5.04952e-07 25 9.3342e-07)
(-2.36951e-07 25 3.10742e-10)
(-6.94885e-07 25 5.91188e-09)
(-1.02695e-06 25 4.51445e-08)
(-1.11279e-06 25 1.1553e-07)
(-9.2092e-07 25 2.05157e-07)
(-4.75141e-07 25 2.96099e-07)
(1.54931e-07 25 3.64571e-07)
(2.52919e-07 25 3.95952e-07)
(1.02239e-06 25 8.08562e-09)
(2.95968e-06 25 4.12718e-09)
(4.48953e-06 25 -1.59162e-08)
(5.31839e-06 25 -4.997e-08)
(5.30317e-06 25 -9.34085e-08)
(4.43348e-06 25 -1.40614e-07)
(2.84593e-06 25 -1.85943e-07)
(9.49463e-07 25 -2.22181e-07)
(1.12299e-06 25 1.68593e-08)
(3.24904e-06 25 9.81462e-09)
(4.92699e-06 25 -1.91206e-08)
(5.8354e-06 25 -6.68585e-08)
(5.81219e-06 25 -1.27409e-07)
(4.83896e-06 25 -1.93746e-07)
(3.05073e-06 25 -2.61367e-07)
(9.89497e-07 25 -3.37757e-07)
(1.29143e-06 25 2.43547e-08)
(3.74808e-06 25 1.47851e-08)
(5.70086e-06 25 -2.36859e-08)
(6.7626e-06 25 -8.78931e-08)
(6.73525e-06 25 -1.70557e-07)
(5.58945e-06 25 -2.62384e-07)
(3.48553e-06 25 -3.56232e-07)
(1.11295e-06 25 -4.55655e-07)
(1.52851e-06 25 3.568e-08)
(4.45606e-06 25 2.21528e-08)
(6.80497e-06 25 -3.22843e-08)
(8.08623e-06 25 -1.24891e-07)
(8.04778e-06 25 -2.46392e-07)
(6.64324e-06 25 -3.83355e-07)
(4.0662e-06 25 -5.24042e-07)
(1.26194e-06 25 -6.6965e-07)
(1.80989e-06 25 5.37289e-08)
(5.30822e-06 25 3.35163e-08)
(8.14348e-06 25 -4.69208e-08)
(9.68482e-06 25 -1.85979e-07)
(9.61269e-06 25 -3.71459e-07)
(7.85988e-06 25 -5.83061e-07)
(4.66452e-06 25 -8.01098e-07)
(1.37766e-06 25 -1.02477e-06)
(2.08565e-06 25 8.2825e-08)
(6.17032e-06 25 5.31128e-08)
(9.51623e-06 25 -6.6004e-08)
(1.13067e-05 25 -2.74414e-07)
(1.11554e-05 25 -5.55425e-07)
(8.98031e-06 25 -8.77804e-07)
(5.08103e-06 25 -1.20867e-06)
(1.38104e-06 25 -1.54326e-06)
(2.27761e-06 25 1.3094e-07)
(6.82671e-06 25 9.18353e-08)
(1.0596e-05 25 -7.76651e-08)
(1.25432e-05 25 -3.77202e-07)
(1.22446e-05 25 -7.82507e-07)
(9.62916e-06 25 -1.2454e-06)
(5.08522e-06 25 -1.71242e-06)
(1.20429e-06 25 -2.16987e-06)
(2.29282e-06 25 2.1037e-07)
(7.00839e-06 25 1.69901e-07)
(1.09646e-05 25 -5.27787e-08)
(1.2884e-05 25 -4.50264e-07)
(1.23736e-05 25 -9.84644e-07)
(9.4248e-06 25 -1.58351e-06)
(4.54705e-06 25 -2.16557e-06)
(8.60863e-07 25 -2.70109e-06)
(2.06388e-06 25 3.3274e-07)
(6.48897e-06 25 3.11427e-07)
(1.025e-05 25 5.30456e-08)
(1.19045e-05 25 -4.14525e-07)
(1.11855e-05 25 -1.03095e-06)
(8.20073e-06 25 -1.69605e-06)
(3.58804e-06 25 -2.30193e-06)
(4.93279e-07 25 -2.80027e-06)
(1.60934e-06 25 4.92815e-07)
(5.2375e-06 25 5.19337e-07)
(8.34289e-06 25 2.70062e-07)
(9.52165e-06 25 -1.92105e-07)
(8.70456e-06 25 -7.82386e-07)
(6.13956e-06 25 -1.38564e-06)
(2.5219e-06 25 -1.88678e-06)
(2.79977e-07 25 -2.22379e-06)
(1.04065e-06 25 6.43659e-07)
(3.48735e-06 25 7.22974e-07)
(5.52647e-06 25 5.33584e-07)
(6.10832e-06 25 1.82045e-07)
(5.37033e-06 25 -2.52519e-07)
(3.65025e-06 25 -6.63226e-07)
(1.55792e-06 25 -9.54451e-07)
(2.4945e-07 25 -1.0961e-06)
(4.60457e-07 25 6.95504e-07)
(1.55729e-06 25 7.84766e-07)
(2.36814e-06 25 6.8473e-07)
(2.41345e-06 25 5.15744e-07)
(1.95024e-06 25 3.28936e-07)
(1.31637e-06 25 2.04519e-07)
(8.64367e-07 25 1.71496e-07)
(3.56096e-07 25 1.97182e-07)
(-3.00436e-08 25 5.67358e-07)
(-1.36212e-07 25 6.23768e-07)
(-3.92306e-07 25 6.36964e-07)
(-6.90447e-07 25 6.771e-07)
(-7.61162e-07 25 7.68133e-07)
(-3.87502e-07 25 9.22455e-07)
(4.85641e-07 25 1.10438e-06)
(5.16292e-07 25 1.25973e-06)
(-3.68183e-07 25 3.08209e-07)
(-1.21008e-06 25 3.28761e-07)
(-2.00077e-06 25 4.39248e-07)
(-2.3569e-06 25 6.44889e-07)
(-2.08927e-06 25 9.29678e-07)
(-1.13196e-06 25 1.24767e-06)
(3.71735e-07 25 1.5355e-06)
(6.12453e-07 25 1.75149e-06)
(-4.5407e-07 25 5.22497e-08)
(-1.38651e-06 25 7.07492e-08)
(-2.11558e-06 25 2.23669e-07)
(-2.33304e-06 25 4.75454e-07)
(-1.95005e-06 25 7.9136e-07)
(-9.89745e-07 25 1.10771e-06)
(3.70441e-07 25 1.36094e-06)
(5.60048e-07 25 1.54714e-06)
(-2.31934e-07 25 -3.70059e-08)
(-6.62357e-07 25 -1.97313e-08)
(-9.5229e-07 25 6.51419e-08)
(-1.00757e-06 25 1.97214e-07)
(-8.05527e-07 25 3.52596e-07)
(-3.74672e-07 25 4.97554e-07)
(2.23594e-07 25 6.06904e-07)
(2.7844e-07 25 6.96076e-07)
(1.02124e-06 25 4.69045e-09)
(2.94736e-06 25 3.54206e-09)
(4.45877e-06 25 -7.62862e-09)
(5.27361e-06 25 -2.72117e-08)
(5.25042e-06 25 -5.24109e-08)
(4.37903e-06 25 -7.9955e-08)
(2.79606e-06 25 -1.06864e-07)
(9.26507e-07 25 -1.29819e-07)
(1.11964e-06 25 1.06996e-08)
(3.22814e-06 25 7.3495e-09)
(4.88003e-06 25 -1.02036e-08)
(5.76869e-06 25 -3.96047e-08)
(5.73404e-06 25 -7.69123e-08)
(4.7556e-06 25 -1.17757e-07)
(2.9533e-06 25 -1.60273e-07)
(9.34579e-07 25 -2.15192e-07)
(1.28672e-06 25 1.47729e-08)
(3.71983e-06 25 1.00568e-08)
(5.63767e-06 25 -1.34777e-08)
(6.67207e-06 25 -5.3134e-08)
(6.62809e-06 25 -1.04009e-07)
(5.47474e-06 25 -1.60294e-07)
(3.35764e-06 25 -2.18712e-07)
(1.04347e-06 25 -2.88186e-07)
(1.52151e-06 25 2.08844e-08)
(4.4154e-06 25 1.38852e-08)
(6.71377e-06 25 -1.97784e-08)
(7.95371e-06 25 -7.73172e-08)
(7.88884e-06 25 -1.52295e-07)
(6.47194e-06 25 -2.36248e-07)
(3.87833e-06 25 -3.23594e-07)
(1.1614e-06 25 -4.24126e-07)
(1.79897e-06 25 3.06138e-08)
(5.24712e-06 25 1.96914e-08)
(8.00648e-06 25 -3.0481e-08)
(9.48325e-06 25 -1.1731e-07)
(9.36818e-06 25 -2.32053e-07)
(7.59499e-06 25 -3.61824e-07)
(4.37574e-06 25 -4.96944e-07)
(1.22401e-06 25 -6.50598e-07)
(2.06937e-06 25 4.66172e-08)
(6.07945e-06 25 3.03282e-08)
(9.31132e-06 25 -4.42521e-08)
(1.10025e-05 25 -1.74578e-07)
(1.07841e-05 25 -3.48432e-07)
(8.57857e-06 25 -5.45875e-07)
(4.64813e-06 25 -7.50166e-07)
(1.15242e-06 25 -9.78782e-07)
(2.25688e-06 25 7.39544e-08)
(6.70007e-06 25 5.32187e-08)
(1.03033e-05 25 -5.26882e-08)
(1.21066e-05 25 -2.39488e-07)
(1.17126e-05 25 -4.89352e-07)
(9.06084e-06 25 -7.71474e-07)
(4.48897e-06 25 -1.05767e-06)
(8.94231e-07 25 -1.36772e-06)
(2.27442e-06 25 1.20335e-07)
(6.85188e-06 25 1.01933e-07)
(1.05804e-05 25 -3.61677e-08)
(1.23111e-05 25 -2.82295e-07)
(1.16855e-05 25 -6.09103e-07)
(8.71173e-06 25 -9.70435e-07)
(3.837e-06 25 -1.32217e-06)
(5.02549e-07 25 -1.68048e-06)
(2.06314e-06 25 1.92908e-07)
(6.33006e-06 25 1.92174e-07)
(9.80572e-06 25 3.39918e-08)
(1.12463e-05 25 -2.52137e-07)
(1.0419e-05 25 -6.2413e-07)
(7.44846e-06 25 -1.01863e-06)
(2.90444e-06 25 -1.37639e-06)
(1.67445e-07 25 -1.70223e-06)
(1.64643e-06 25 2.88178e-07)
(5.12532e-06 25 3.25273e-07)
(7.91583e-06 25 1.75999e-07)
(8.89441e-06 25 -1.01788e-07)
(8.00474e-06 25 -4.5124e-07)
(5.50138e-06 25 -8.01609e-07)
(2.02264e-06 25 -1.08942e-06)
(6.85327e-08 25 -1.30087e-06)
(1.11578e-06 25 3.766e-07)
(3.45115e-06 25 4.51728e-07)
(5.20981e-06 25 3.40405e-07)
(5.65059e-06 25 1.35067e-07)
(4.88343e-06 25 -1.17322e-07)
(3.25507e-06 25 -3.51833e-07)
(1.31476e-06 25 -5.12501e-07)
(1.66957e-07 25 -5.94994e-07)
(5.36742e-07 25 4.02697e-07)
(1.5763e-06 25 4.78982e-07)
(2.21431e-06 25 4.21715e-07)
(2.2105e-06 25 3.25153e-07)
(1.78235e-06 25 2.18772e-07)
(1.24308e-06 25 1.57258e-07)
(8.77319e-07 25 1.45473e-07)
(3.80833e-07 25 1.7021e-07)
(1.76247e-08 25 3.18703e-07)
(-7.85224e-08 25 3.66371e-07)
(-3.54445e-07 25 3.76393e-07)
(-5.99774e-07 25 4.04232e-07)
(-5.97741e-07 25 4.67066e-07)