/*--------------------------------*- C++ -*----------------------------------*\
  =========                 |
  \\      /  F ield         | OpenFOAM: The Open Source CFD Toolbox
   \\    /   O peration     | Website:  https://openfoam.org
    \\  /    A nd           | Version:  6
     \\/     M anipulation  |
\*---------------------------------------------------------------------------*/
FoamFile
{
    version     2.0;
    format      ascii;
    class       volScalarField;
    location    "1";
    object      T;
}
// * * * * * * * * * * * * * * * * * * * * * * * * * * * * * * * * * * * * * //

dimensions      [0 0 0 1 0 0 0];

internalField   nonuniform List<scalar> 
3029
(
278.133
272.084
303.572
248.276
308.924
248.275
303.571
272.084
278.133
314.126
319.006
340.657
273.311
331.41
273.311
340.657
319.006
314.126
255.933
262.293
294.544
268.083
316.325
268.083
294.544
262.292
255.933
258.562
254.993
289.312
268.843
303.213
268.842
289.312
254.992
258.562
267.515
258.323
288.453
271.201
295.62
271.201
288.452
258.322
267.514
273.341
262.366
287.883
273.402
291.47
273.401
287.881
262.364
273.34
276.186
265.352
287.34
275.215
289.13
275.214
287.338
265.35
276.185
277.303
267.395
286.847
276.721
287.754
276.72
286.844
267.392
277.301
277.558
268.837
286.422
278.026
286.973
278.025
286.418
268.834
277.555
277.406
269.918
286.074
279.213
286.616
279.211
286.069
269.914
277.403
277.052
270.76
285.822
280.478
286.987
280.476
285.817
270.756
277.048
276.538
271.418
285.633
281.768
287.337
281.766
285.628
271.413
276.533
275.844
271.838
285.538
284.96
294.757
284.958
285.532
271.833
275.839
275
271.993
285.032
284.57
286.022
284.568
285.027
271.986
274.995
274.554
271.703
283.387
308.896
453.186
308.892
283.381
271.696
274.548
276.05
272.384
272.828
242.911
244.693
242.909
272.822
272.377
276.043
285.686
282.787
258.342
222.262
478.544
222.26
258.336
282.78
285.678
298.691
293.148
247.372
220.705
487.127
220.704
247.367
293.14
298.683
305.768
293.532
232.651
210.25
405.616
210.249
232.647
293.523
305.759
308.704
291.767
226.414
216.619
428.71
216.618
226.41
291.759
308.695
310.398
291.162
226.144
226.002
444.747
226
226.14
291.154
310.389
312.338
292.16
228.796
234.374
449.655
234.372
228.792
292.152
312.328
315.07
294.518
232.856
241.624
449.404
241.621
232.852
294.509
315.059
318.76
297.988
237.719
248.296
447.354
248.293
237.715
297.979
318.749
323.441
302.388
243.153
254.815
444.908
254.812
243.148
302.379
323.43
329.075
307.523
248.962
261.411
442.56
261.408
248.957
307.514
329.065
335.581
313.162
255.124
268.471
440.841
268.469
255.119
313.152
335.57
342.892
318.816
260.641
275.281
438.942
275.279
260.636
318.806
342.88
351.413
324.685
268.355
285.904
442.611
285.902
268.35
324.675
351.401
362.562
330.617
269.07
286.159
434.601
286.157
269.065
330.607
362.55
382.197
346.54
293.931
333.263
497.539
333.26
293.925
346.53
382.184
411.642
377.022
345.645
394.309
577.124
394.306
345.638
377.012
411.628
442.465
407.924
315.541
329.362
480.596
329.36
315.534
407.913
442.451
539.499
527.797
280.335
130.205
169.325
130.203
280.329
527.783
539.482
272.084
257.037
315.863
261.351
264.444
261.351
315.862
257.037
272.084
319.006
349.299
411.267
302.969
279.496
302.968
411.265
349.299
319.005
262.293
289.102
355.503
304.161
282.035
304.161
355.501
289.102
262.292
254.993
263.818
322.188
299.426
281.42
299.425
322.186
263.817
254.992
258.323
258.541
307.7
296.184
281.044
296.183
307.698
258.539
258.322
262.366
259.822
301.833
294.634
281.352
294.633
301.831
259.819
262.364
265.352
262.558
299.429
294.071
282.15
294.07
299.426
262.555
265.349
267.395
265.285
298.363
294.006
283.244
294.004
298.359
265.281
267.392
268.837
267.694
297.818
294.201
284.548
294.199
297.814
267.69
268.833
269.918
269.777
297.486
294.566
286.047
294.564
297.481
269.772
269.913
270.76
271.554
297.256
295.133
287.916
295.131
297.25
271.548
270.755
271.417
273.053
297.023
295.867
289.992
295.865
297.017
273.046
271.411
271.838
274.175
296.621
297.258
294.612
297.256
296.614
274.168
271.832
271.992
274.686
295.392
296.785
293.639
296.781
295.385
274.678
271.985
271.702
273.999
291.714
299.954
332.352
299.95
291.706
273.991
271.695
272.384
273.033
283.394
261.693
220.741
261.69
283.386
273.025
272.375
282.787
275.264
263.059
251.55
640.046
251.547
263.052
275.255
282.778
293.147
273.962
240.046
284.619
959.991
284.615
240.04
273.952
293.137
293.531
269.042
228.396
298.142
864.791
298.138
228.39
269.032
293.52
291.766
265.78
226.531
309.171
807.517
309.166
226.525
265.77
291.755
291.161
265.352
229.953
319.237
774.855
319.232
229.947
265.342
291.151
292.159
267.192
235.885
328.267
750.817
328.261
235.879
267.183
292.148
294.517
270.639
243.089
336.635
730.326
336.628
243.082
270.629
294.506
297.987
275.273
251.097
344.769
712.088
344.763
251.09
275.263
297.976
302.388
280.854
259.8
353.113
695.884
353.106
259.793
280.845
302.377
307.523
287.098
269.092
362.169
681.863
362.162
269.085
287.088
307.512
313.161
293.913
279.548
372.624
670.392
372.618
279.54
293.903
313.15
318.815
299.551
288.679
384.95
660.764
384.944
288.671
299.54
318.804
324.685
307.092
308.602
400.605
652.968
400.599
308.594
307.082
324.673
330.617
296.899
273.45
393.642
602.846
393.637
273.443
296.889
330.605
346.54
315.186
475.163
498.669
678.409
498.664
475.153
315.176
346.529
377.023
338.009
548.244
558.579
729.189
558.574
548.234
338
377.011
407.924
371.753
515.768
592.603
782.066
592.597
515.758
371.742
407.912
527.798
590.464
589.338
530.984
629.67
530.978
589.325
590.448
527.783
303.572
315.863
347.598
305.914
270.071
305.914
347.597
315.862
303.571
340.657
411.266
440.293
345.748
280.303
345.747
440.291
411.265
340.657
294.544
355.502
418.095
352.385
285.07
352.384
418.093
355.501
294.543
289.312
322.187
387.147
347.003
286.998
347.002
387.144
322.185
289.311
288.453
307.7
366.472
340.387
288.425
340.385
366.468
307.697
288.451
287.883
301.833
353.99
335.12
290.124
335.118
353.986
301.83
287.88
287.34
299.428
346.109
331.269
292.194
331.267
346.104
299.424
287.336
286.847
298.362
340.64
328.478
294.579
328.476
340.635
298.358
286.843
286.421
297.818
336.486
326.479
297.254
326.476
336.48
297.812
286.416
286.073
297.485
333.135
325.139
300.249
325.137
333.129
297.479
286.067
285.821
297.255
330.349
324.43
303.669
324.428
330.342
297.248
285.814
285.632
297.022
327.966
324.316
307.519
324.313
327.959
297.015
285.624
285.536
296.62
325.728
324.753
312.315
324.75
325.72
296.612
285.528
285.031
295.391
322.898
324.754
315.599
324.75
322.889
295.382
285.023
283.385
291.712
318.138
324.137
327.565
324.132
318.13
291.703
283.377
272.826
283.392
309.946
313.852
290.621
313.847
309.937
283.383
272.818
258.34
263.058
302.522
307.418
435.725
307.414
302.513
263.048
258.331
247.37
240.044
294.434
320.977
743.328
320.972
294.425
240.036
247.362
232.649
228.395
287.355
332.633
826.345
332.627
287.347
228.386
232.643
226.413
226.529
284.95
344.206
832.387
344.198
284.941
226.521
226.406
226.143
229.951
286.75
356.664
819.434
356.656
286.741
229.943
226.137
228.795
235.884
291.39
369.841
803.478
369.832
291.381
235.876
228.789
232.855
243.087
297.92
383.505
788.597
383.496
297.91
243.079
232.848
237.718
251.096
305.893
397.638
775.617
397.628
305.884
251.087
237.711
243.152
259.799
315.167
412.442
764.661
412.432
315.157
259.79
243.145
248.961
269.091
326.005
428.762
756.063
428.752
325.994
269.082
248.954
255.123
279.547
338.67
447.069
749.436
447.06
338.66
279.538
255.116
260.641
288.678
357.25
475.496
750.614
475.487
357.24
288.669
260.634
268.355
308.601
383.612
503.499
748.26
503.49
383.601
308.592
268.348
269.07
273.449
484.985
685.403
881.031
685.394
484.971
273.441
269.063
293.931
475.163
1249.38
859.368
1023.38
859.362
1249.36
475.153
293.924
345.645
548.244
548.234
345.637
315.541
515.768
344.099
395.198
563.597
395.194
344.093
515.757
315.533
280.337
589.34
480.106
494.607
615.698
494.6
480.094
589.325
280.329
434.18
446.43
548.306
446.423
434.17
440.418
441.482
536.226
441.475
440.408
450.072
444.452
534.011
444.446
450.062
457.911
448.797
534.014
448.79
457.9
464.262
453.157
534.608
453.15
464.251
469.94
457.439
535.437
457.431
469.929
475.339
461.664
536.387
461.657
475.328
480.641
465.873
537.428
465.865
480.63
485.854
470.034
538.527
470.027
485.843
491.226
474.344
539.756
474.336
491.215
495.737
477.945
540.78
477.937
495.726
503.921
484.595
542.96
484.586
503.91
248.276
261.35
305.914
311.067
289.231
311.066
305.913
261.349
248.275
273.311
302.967
345.747
328.499
293.376
328.497
345.746
302.966
273.31
268.083
304.16
352.383
334.349
295.006
334.348
352.381
304.158
268.082
268.842
299.424
347.001
333.342
295.532
333.341
346.998
299.422
268.841
271.2
296.182
340.384
330.518
296.413
330.517
340.381
296.179
271.199
273.401
294.632
335.117
327.971
298.179
327.969
335.113
294.629
273.398
275.213
294.069
331.266
326.277
300.879
326.275
331.262
294.065
275.21
276.719
294.003
328.475
325.514
304.432
325.512
328.47
293.999
276.715
278.024
294.198
326.476
325.662
308.782
325.66
326.471
294.193
278.02
279.21
294.563
325.137
326.725
313.925
326.722
325.131
294.558
279.206
280.475
295.13
324.427
328.738
319.894
328.735
324.421
295.124
280.47
281.765
295.864
324.313
331.715
326.695
331.711
324.306
295.858
281.759
284.958
297.255
324.75
335.592
334.33
335.587
324.743
297.248
284.951
284.567
296.781
324.751
339.975
342.39
339.97
324.743
296.773
284.56
308.893
299.95
324.134
344.483
351.869
344.478
324.125
299.942
308.884
242.908
261.69
313.849
348.556
360.228
348.55
313.84
261.681
242.9
222.26
251.547
307.415
357.534
383.058
357.528
307.406
251.541
222.257
220.705
284.617
320.974
370.014
447.526
370.007
320.965
284.612
220.704
210.25
298.14
332.63
379.37
494.333
379.362
332.622
298.136
210.249
216.618
309.169
344.203
388.935
521.417
388.926
344.194
309.165
216.618
226.001
319.235
356.661
400.3
538.724
400.292
356.651
319.231
226.001
234.373
328.265
369.837
413.458
552.468
413.449
369.828
328.26
234.372
241.623
336.632
383.501
427.996
565.315
427.986
383.492
336.627
241.622
248.295
344.766
397.633
443.869
578.358
443.859
397.623
344.761
248.293
254.814
353.109
412.437
461.183
592.147
461.173
412.427
353.104
254.812
261.409
362.165
428.757
480.664
607.334
480.654
428.746
362.16
261.407
268.47
372.62
447.064
503.464
624.768
503.455
447.054
372.615
268.468
275.28
384.946
475.49
535.86
648.606
535.85
475.48
384.94
275.278
285.903
400.601
503.494
577.041
677.664
577.032
503.483
400.595
285.901
286.158
393.639
685.398
708.209
758.069
708.2
685.385
393.632
286.156
333.261
498.666
859.365
487.071
543.698
487.068
859.354
498.659
333.259
394.307
558.576
558.569
394.303
329.361
592.601
395.196
314.524
427.203
314.52
395.191
592.594
329.358
130.205
530.985
494.606
479.154
574.654
479.146
494.598
530.977
130.203
446.429
457.825
551.899
457.817
446.421
441.482
444.99
532.856
444.983
441.474
444.452
442.352
524.838
442.345
444.444
448.797
444.315
522.716
444.307
448.789
453.158
447.86
523.017
447.852
453.149
457.439
451.921
524.253
451.913
457.43
461.665
456.124
525.842
456.115
461.656
465.873
460.359
527.576
460.351
465.864
470.035
464.547
529.361
464.539
470.026
474.345
468.856
531.256
468.847
474.336
477.946
472.456
532.861
472.447
477.937
484.595
479.026
535.908
479.017
484.586
308.924
264.442
270.069
289.229
296.797
289.227
270.067
264.442
308.924
331.409
279.495
280.301
293.374
297.469
293.372
280.299
279.494
331.408
316.324
282.033
285.068
295.004
296.8
295.002
285.066
282.032
316.322
303.212
281.418
286.995
295.53
296.314
295.528
286.993
281.416
303.209
295.618
281.042
288.422
296.41
297.091
296.408
288.419
281.039
295.615
291.468
281.35
290.121
298.177
299.402
298.174
290.117
281.347
291.465
289.128
282.147
292.19
300.876
303.128
300.874
292.187
282.144
289.124
287.751
283.241
294.576
304.429
308.073
304.426
294.572
283.238
287.747
286.97
284.545
297.251
308.779
314.085
308.776
297.246
284.541
286.965
286.612
286.043
300.246
313.922
321.083
313.919
300.241
286.039
286.607
286.983
287.912
303.665
319.892
329.029
319.888
303.66
287.907
286.977
287.333
289.988
307.515
326.692
337.88
326.688
307.509
289.982
287.327
294.753
294.607
312.311
334.327
347.572
334.323
312.304
294.601
294.747
286.018
293.635
315.594
342.387
358.081
342.383
315.588
293.628
286.012
453.179
332.347
327.56
351.866
369.905
351.86
327.553
332.34
453.168
244.689
220.736
290.616
360.225
386.376
360.219
290.609
220.729
244.682
478.544
640.043
435.719
383.054
412.952
383.047
435.71
640.039
478.544
487.127
959.99
743.322
447.522
442.176
447.514
743.314
959.989
487.127
405.616
864.791
826.341
494.329
465.347
494.321
826.332
864.79
405.617
428.71
807.517
832.383
521.412
484.579
521.404
832.374
807.514
428.71
444.747
774.856
819.431
538.72
502.548
538.711
819.422
774.853
444.747
449.656
750.817
803.474
552.463
520.525
552.455
803.467
750.814
449.656
449.404
730.327
788.594
565.31
538.919
565.302
788.586
730.325
449.404
447.355
712.09
775.614
578.354
557.807
578.346
775.606
712.087
447.354
444.91
695.886
764.659
592.143
577.397
592.134
764.651
695.882
444.909
442.561
681.866
756.062
607.33
598.329
607.321
756.053
681.862
442.561
440.843
670.395
749.434
624.765
621.724
624.756
749.425
670.391
440.843
438.945
660.767
750.613
648.603
651.118
648.595
750.603
660.764
438.944
442.615
652.972
748.259
677.662
686.697
677.653
748.25
652.968
442.614
434.605
602.85
881.031
758.067
749.007
758.059
881.02
602.846
434.604
497.543
678.412
1023.38
543.697
611.748
543.695
1023.37
678.407
497.543
577.129
729.191
729.185
577.128
480.602
782.071
563.6
427.205
406.813
427.204
563.599
782.066
480.601
169.327
629.677
615.703
574.657
523.98
574.655
615.7
629.674
169.328
548.31
551.903
528.532
551.9
548.306
536.231
532.859
518.85
532.857
536.226
534.016
524.842
513.649
524.839
534.01
534.019
522.72
512.84
522.717
534.013
534.612
523.021
514.242
523.018
534.607
535.442
524.257
516.562
524.254
535.436
536.392
525.846
519.209
525.843
536.386
537.433
527.58
521.949
527.577
537.427
538.532
529.365
524.676
529.362
538.526
539.761
531.26
527.468
531.257
539.755
540.785
532.865
529.814
532.862
540.778
542.965
535.912
533.999
535.909
542.958
248.275
261.35
305.912
311.063
289.225
311.063
305.912
261.349
248.275
273.311
302.967
345.746
328.495
293.37
328.495
345.745
302.966
273.311
268.083
304.16
352.382
334.346
295
334.345
352.38
304.159
268.082
268.842
299.423
347
333.339
295.527
333.338
346.998
299.422
268.841
271.2
296.181
340.383
330.515
296.407
330.514
340.38
296.179
271.198
273.4
294.631
335.116
327.967
298.173
327.966
335.113
294.629
273.398
275.211
294.066
331.264
326.273
300.872
326.272
331.261
294.064
275.209
276.717
294.001
328.473
325.509
304.425
325.508
328.469
293.998
276.714
278.022
294.195
326.473
325.657
308.775
325.655
326.469
294.192
278.019
279.208
294.56
325.133
326.72
313.917
326.718
325.129
294.557
279.205
280.472
295.127
324.423
328.732
319.886
328.73
324.419
295.123
280.469
281.761
295.861
324.308
331.708
326.686
331.706
324.303
295.856
281.758
284.954
297.251
324.745
335.584
334.321
335.582
324.74
297.246
284.949
284.564
296.776
324.745
339.967
342.381
339.964
324.74
296.771
284.559
308.888
299.945
324.128
344.474
351.859
344.471
324.122
299.94
308.882
242.904
261.685
313.842
348.546
360.217
348.543
313.836
261.68
242.899
222.259
251.544
307.408
357.524
383.045
357.52
307.403
251.54
222.256
220.704
284.614
320.967
370.003
447.511
369.998
320.962
284.611
220.703
210.249
298.137
332.623
379.359
494.318
379.354
332.618
298.135
210.249
216.618
309.166
344.196
388.922
521.402
388.917
344.191
309.164
216.618
226.001
319.232
356.653
400.288
538.709
400.282
356.649
319.23
226.001
234.373
328.262
369.83
413.445
552.453
413.44
369.825
328.26
234.373
241.623
336.63
383.495
427.983
565.299
427.978
383.489
336.628
241.623
248.295
344.765
397.628
443.857
578.343
443.851
397.622
344.763
248.295
254.814
353.109
412.433
461.171
592.132
461.165
412.427
353.107
254.814
261.411
362.166
428.754
480.653
607.319
480.647
428.748
362.163
261.41
268.472
372.623
447.062
503.455
624.754
503.448
447.056
372.619
268.472
275.283
384.949
475.49
535.851
648.593
535.845
475.483
384.946
275.282
285.906
400.606
503.495
577.034
677.652
577.028
503.488
400.602
285.906
286.163
393.644
685.4
708.202
758.058
708.196
685.392
393.64
286.162
333.267
498.671
859.367
487.069
543.695
487.066
859.357
498.667
333.266
394.313
558.581
558.577
394.312
329.366
592.606
395.199
314.526
427.206
314.524
395.197
592.602
329.365
130.206
530.986
494.606
479.153
574.658
479.15
494.602
530.98
130.205
446.429
457.824
551.903
457.821
446.423
441.481
444.989
532.86
444.986
441.476
444.451
442.351
524.842
442.347
444.446
448.796
444.313
522.72
444.31
448.79
453.156
447.858
523.021
447.855
453.151
457.437
451.919
524.257
451.916
457.432
461.663
456.122
525.846
456.118
461.658
465.871
460.357
527.58
460.354
465.866
470.033
464.545
529.365
464.542
470.028
474.342
468.853
531.261
468.85
474.337
477.943
472.454
532.865
472.451
477.938
484.592
479.023
535.912
479.02
484.588
303.571
315.862
347.596
305.911
270.066
305.911
347.595
315.862
303.572
340.656
411.265
440.29
345.744
280.298
345.744
440.289
411.264
340.657
294.543
355.5
418.091
352.379
285.065
352.38
418.09
355.5
294.543
289.31
322.185
387.142
346.997
286.992
346.997
387.141
322.184
289.31
288.45
307.696
366.466
340.379
288.418
340.38
366.465
307.695
288.45
287.879
301.829
353.983
335.112
290.116
335.112
353.981
301.827
287.879
287.336
299.423
346.101
331.26
292.186
331.26
346.1
299.421
287.335
286.842
298.356
340.632
328.469
294.571
328.469
340.63
298.355
286.841
286.415
297.811
336.477
326.469
297.245
326.469
336.475
297.809
286.414
286.066
297.478
333.125
325.129
300.239
325.129
333.123
297.475
286.064
285.813
297.247
330.338
324.419
303.658
324.418
330.336
297.244
285.811
285.624
297.013
327.954
324.303
307.507
324.303
327.952
297.01
285.622
285.528
296.61
325.716
324.74
312.303
324.739
325.713
296.607
285.525
285.023
295.38
322.886
324.741
315.586
324.74
322.883
295.377
285.02
283.377
291.702
318.126
324.123
327.552
324.122
318.122
291.699
283.374
272.818
283.383
309.933
313.837
290.607
313.836
309.929
283.379
272.815
258.333
263.049
302.509
307.404
435.709
307.402
302.506
263.045
258.329
247.364
240.036
294.421
320.963
743.312
320.961
294.418
240.032
247.361
232.645
228.387
287.343
332.62
826.33
332.617
287.34
228.383
232.641
226.408
226.522
284.938
344.193
832.373
344.189
284.935
226.518
226.405
226.138
229.944
286.738
356.651
819.421
356.647
286.734
229.94
226.135
228.79
235.876
291.378
369.828
803.466
369.823
291.374
235.873
228.787
232.85
243.08
297.907
383.492
788.585
383.487
297.903
243.076
232.847
237.713
251.088
305.881
397.625
775.605
397.619
305.877
251.084
237.71
243.147
259.791
315.155
412.429
764.649
412.424
315.151
259.787
243.144
248.955
269.083
325.993
428.75
756.052
428.744
325.988
269.079
248.952
255.118
279.539
338.659
447.057
749.424
447.052
338.655
279.535
255.114
260.635
288.671
357.24
475.484
750.603
475.479
357.235
288.667
260.632
268.35
308.595
383.602
503.489
748.25
503.484
383.597
308.59
268.347
269.065
273.444
484.976
685.392
881.021
685.388
484.97
273.44
269.062
293.926
475.158
1249.37
859.359
1023.37
859.357
1249.36
475.153
293.923
345.64
548.24
548.235
345.636
315.535
515.763
344.096
395.197
563.601
395.195
344.092
515.757
315.531
280.33
589.328
480.097
494.604
615.703
494.601
480.093
589.322
280.326
434.173
446.426
548.308
446.423
434.168
440.411
441.478
536.228
441.475
440.406
450.065
444.448
534.013
444.446
450.06
457.903
448.793
534.016
448.79
457.899
464.254
453.153
534.61
453.151
464.25
469.932
457.435
535.439
457.432
469.928
475.332
461.66
536.389
461.658
475.327
480.633
465.869
537.43
465.866
480.629
485.847
470.03
538.529
470.028
485.842
491.219
474.34
539.758
474.337
491.214
495.73
477.941
540.781
477.938
495.726
503.914
484.591
542.962
484.588
503.91
272.083
257.036
315.862
261.349
264.441
261.349
315.862
257.037
272.084
319.005
349.298
411.264
302.966
279.493
302.966
411.264
349.298
319.005
262.292
289.101
355.5
304.158
282.031
304.158
355.5
289.101
262.292
254.992
263.816
322.184
299.421
281.416
299.422
322.184
263.815
254.992
258.321
258.538
307.696
296.179
281.039
296.179
307.695
258.538
258.32
262.363
259.818
301.828
294.628
281.346
294.628
301.827
259.817
262.362
265.348
262.553
299.422
294.063
282.143
294.063
299.421
262.552
265.347
267.391
265.279
298.356
293.997
283.237
293.997
298.355
265.278
267.39
268.832
267.688
297.81
294.191
284.539
294.191
297.809
267.687
268.83
269.912
269.77
297.477
294.556
286.038
294.556
297.475
269.768
269.91
270.753
271.546
297.246
295.123
287.906
295.123
297.244
271.544
270.751
271.41
273.044
297.012
295.856
289.982
295.856
297.01
273.042
271.408
271.83
274.165
296.608
297.246
294.6
297.246
296.607
274.163
271.828
271.984
274.676
295.379
296.772
293.628
296.771
295.377
274.673
271.981
271.694
273.988
291.701
299.94
332.339
299.94
291.699
273.985
271.691
272.374
273.022
283.381
261.68
220.728
261.68
283.379
273.019
272.371
282.776
275.252
263.046
251.54
640.038
251.539
263.045
275.249
282.773
293.136
273.95
240.034
284.612
959.988
284.611
240.032
273.946
293.132
293.52
269.03
228.385
298.136
864.79
298.135
228.383
269.027
293.516
291.755
265.768
226.52
309.165
807.515
309.163
226.518
265.765
291.751
291.15
265.34
229.942
319.232
774.854
319.229
229.94
265.337
291.146
292.148
267.18
235.875
328.262
750.816
328.259
235.873
267.177
292.144
294.506
270.627
243.078
336.629
730.327
336.626
243.076
270.624
294.502
297.976
275.261
251.087
344.764
712.089
344.76
251.084
275.258
297.972
302.376
280.843
259.79
353.108
695.885
353.104
259.787
280.839
302.372
307.512
287.086
269.082
362.164
681.864
362.161
269.079
287.082
307.507
313.15
293.901
279.538
372.62
670.394
372.616
279.535
293.898
313.146
318.804
299.539
288.669
384.946
660.767
384.943
288.667
299.535
318.8
324.674
307.081
308.593
400.602
652.971
400.599
308.59
307.077
324.67
330.606
296.888
273.443
393.64
602.848
393.637
273.44
296.885
330.602
346.529
315.177
475.157
498.666
678.409
498.664
475.153
315.174
346.526
377.012
338.001
548.239
558.576
729.187
558.574
548.235
337.997
377.008
407.914
371.743
515.762
592.601
782.069
592.6
515.757
371.739
407.909
527.786
590.451
589.329
530.984
629.678
530.98
589.324
590.447
527.782
278.132
272.084
303.572
248.275
308.923
248.275
303.572
272.084
278.133
314.126
319.005
340.657
273.31
331.408
273.31
340.657
319.005
314.126
255.933
262.292
294.543
268.081
316.322
268.082
294.543
262.292
255.932
258.562
254.992
289.31
268.84
303.209
268.841
289.31
254.991
258.561
267.514
258.321
288.45
271.198
295.615
271.198
288.45
258.32
267.512
273.339
262.363
287.879
273.398
291.464
273.398
287.879
262.362
273.338
276.183
265.348
287.335
275.209
289.124
275.209
287.335
265.347
276.181
277.3
267.391
286.842
276.714
287.747
276.714
286.841
267.39
277.298
277.554
268.832
286.415
278.018
286.964
278.018
286.414
268.83
277.552
277.401
269.911
286.065
279.204
286.607
279.204
286.064
269.91
277.399
277.046
270.753
285.812
280.469
286.977
280.469
285.811
270.751
277.044
276.531
271.41
285.623
281.758
287.326
281.758
285.622
271.408
276.529
275.837
271.83
285.527
284.949
294.746
284.949
285.525
271.828
275.834
274.993
271.984
285.021
284.559
286.011
284.558
285.02
271.981
274.99
274.546
271.693
283.375
308.883
453.167
308.882
283.373
271.691
274.543
276.041
272.374
272.816
242.9
244.682
242.899
272.815
272.371
276.038
285.676
282.776
258.33
222.257
478.544
222.257
258.329
282.773
285.673
298.681
293.135
247.362
220.704
487.127
220.703
247.361
293.133
298.677
305.757
293.519
232.643
210.25
405.616
210.249
232.642
293.516
305.753
308.693
291.754
226.406
216.619
428.71
216.618
226.405
291.751
308.689
310.387
291.149
226.136
226.002
444.747
226.001
226.135
291.147
310.383
312.326
292.147
228.789
234.373
449.656
234.372
228.787
292.144
312.322
315.058
294.505
232.848
241.623
449.405
241.622
232.847
294.502
315.053
318.748
297.975
237.711
248.295
447.355
248.294
237.71
297.972
318.744
323.429
302.375
243.145
254.814
444.91
254.813
243.144
302.373
323.425
329.064
307.511
248.954
261.41
442.562
261.409
248.953
307.508
329.059
335.569
313.149
255.116
268.472
440.844
268.47
255.115
313.147
335.565
342.879
318.804
260.634
275.282
438.946
275.28
260.633
318.801
342.875
351.401
324.673
268.349
285.905
442.616
285.904
268.347
324.671
351.397
362.55
330.605
269.064
286.161
434.606
286.16
269.063
330.603
362.546
382.185
346.529
293.925
333.265
497.545
333.263
293.923
346.526
382.181
411.629
377.011
345.639
394.31
577.131
394.309
345.636
377.008
411.625
442.453
407.913
315.534
329.364
480.604
329.363
315.532
407.909
442.448
539.486
527.788
280.331
130.205
169.329
130.205
280.328
527.784
539.485
)
;

boundaryField
{
    injectionXMinus
    {
        type            uniformFixedValue;
        uniformValue    uniform 400;
        value           uniform 400;
    }
    injectionXPlus
    {
        type            uniformFixedValue;
        uniformValue    uniform 400;
        value           uniform 400;
    }
    injectionYMinus
    {
        type            uniformFixedValue;
        uniformValue    uniform 400;
        value           uniform 400;
    }
    injectionYPlus
    {
        type            uniformFixedValue;
        uniformValue    uniform 400;
        value           uniform 400;
    }
    inletXMinus
    {
        type            uniformFixedValue;
        uniformValue    uniform 293.15;
        value           uniform 293.15;
    }
    inletXPlus
    {
        type            uniformFixedValue;
        uniformValue    uniform 293.15;
        value           uniform 293.15;
    }
    inletYMinus
    {
        type            uniformFixedValue;
        uniformValue    uniform 293.15;
        value           uniform 293.15;
    }
    inletYPlus
    {
        type            uniformFixedValue;
        uniformValue    uniform 293.15;
        value           uniform 293.15;
    }
    outlet
    {
        type            zeroGradient;
    }
    valve
    {
        type            zeroGradient;
    }
    walls
    {
        type            zeroGradient;
    }
}


// ************************************************************************* //
