/*--------------------------------*- C++ -*----------------------------------*\
  =========                 |
  \\      /  F ield         | OpenFOAM: The Open Source CFD Toolbox
   \\    /   O peration     | Website:  https://openfoam.org
    \\  /    A nd           | Version:  6
     \\/     M anipulation  |
\*---------------------------------------------------------------------------*/
FoamFile
{
    version     2.0;
    format      ascii;
    class       surfaceScalarField;
    location    "0.2";
    object      phi;
}
// * * * * * * * * * * * * * * * * * * * * * * * * * * * * * * * * * * * * * //

dimensions      [0 3 -1 0 0 0 0];

internalField   nonuniform List<scalar> 
8239
(
0.0372683
0.0325298
0.0372682
0.031548
0.0252017
0.0343747
0.0263001
0.0199093
0.0299102
0.0107332
0.0131667
0.00775586
-0.0107334
0.0114171
0.00545346
-0.0263003
0.0131667
0.00775586
-0.0315481
0.0199093
0.0299102
-0.0372683
0.0252017
0.0343747
0.0325298
0.0372682
0.0331504
0.0547157
0.0331503
0.0262371
0.0426457
0.0308085
0.0219629
0.0343226
0.0271881
0.00900241
0.0231983
0.00645543
-0.00900254
0.0204276
0.0045767
-0.021963
0.0231983
0.00645543
-0.0262373
0.0343227
0.0271881
-0.0331504
0.0426457
0.0308085
0.0547157
0.0331503
0.00893772
0.0510414
0.00893772
0.0122035
0.0425607
0.00781683
0.0101102
0.035815
0.0061162
0.00397178
0.0278258
0.00378758
-0.00397194
0.0256143
0.00302242
-0.0101103
0.0278258
0.00378758
-0.0122036
0.035815
0.00611621
-0.00893778
0.0425608
0.00781683
0.0510414
0.00893771
0.00401798
0.0393285
0.00401795
0.00574133
0.0360406
0.00354767
0.00481035
0.0324083
0.00283957
0.00186874
0.0290761
0.00208116
-0.00186891
0.0279162
0.00179709
-0.0048105
0.0290761
0.00208116
-0.00574143
0.0324083
0.00283957
-0.00401802
0.0360406
0.00354768
0.0393284
0.00401794
0.00186309
0.0341912
0.00186306
0.00273794
0.0328034
0.00167483
0.00232696
0.0310096
0.00139158
0.000904675
0.0294729
0.00112125
-0.00090485
0.0288988
0.00101574
-0.00232711
0.0294729
0.00112125
-0.00273805
0.0310096
0.00139158
-0.00186314
0.0328035
0.00167483
0.0341912
0.00186306
0.00088463
0.0318295
0.000884603
0.00132227
0.0312079
0.000810651
0.00113698
0.0303379
0.000699102
0.000443714
0.0295992
0.000597977
-0.000443891
0.0293161
0.000558124
-0.00113714
0.0295992
0.00059798
-0.00132238
0.0303379
0.000699106
-0.000884679
0.0312079
0.000810655
0.0318295
0.000884599
0.000427072
0.0307109
0.000427045
0.000644802
0.0304201
0.000398409
0.000558986
0.0299956
0.000355084
0.00021893
0.0296325
0.00031665
-0.000219108
0.0294917
0.000301488
-0.000559143
0.0296325
0.000316652
-0.00064491
0.0299956
0.000355089
-0.000427119
0.0304201
0.000398415
0.0307109
0.000427043
0.000207452
0.0301739
0.000207427
0.000314959
0.0300314
0.000197005
0.000274384
0.0298181
0.000181207
0.000107707
0.0296333
0.000167319
-0.000107884
0.0295609
0.000161847
-0.00027454
0.0296333
0.000167321
-0.000315067
0.0298181
0.000181212
-0.000207499
0.0300314
0.00019701
0.0301739
0.000207425
9.81628e-05
0.0299218
9.81411e-05
0.000149155
0.0298444
9.60266e-05
0.00012996
0.0297251
9.28556e-05
5.09739e-05
0.0296187
9.01183e-05
-5.11486e-05
0.029576
8.9059e-05
-0.000130113
0.0296187
9.01209e-05
-0.000149263
0.0297251
9.28609e-05
-9.82116e-05
0.0298444
9.60325e-05
0.0299218
9.81403e-05
3.81277e-05
0.0298244
3.81083e-05
5.67374e-05
0.0297679
4.22387e-05
4.81224e-05
0.0296746
4.86487e-05
1.84779e-05
0.0295837
5.44551e-05
-1.86496e-05
0.029544
5.68382e-05
-4.82725e-05
0.0295837
5.44579e-05
-5.68421e-05
0.0296746
4.86535e-05
-3.81752e-05
0.0297679
4.22439e-05
0.0298244
3.81073e-05
-6.54909e-06
0.0298401
-6.56571e-06
-1.48948e-05
0.0297713
7.50487e-06
-1.84711e-05
0.0296431
2.93106e-05
-8.85899e-06
0.0294986
4.92341e-05
8.69131e-06
0.0294249
5.75643e-05
1.83242e-05
0.0294986
4.92368e-05
1.47916e-05
0.0296432
2.93157e-05
6.50168e-06
0.0297713
7.51085e-06
0.0298402
-6.56513e-06
-6.35268e-05
0.0299936
-6.35405e-05
-0.000113302
0.0298727
-2.70372e-05
-0.000118238
0.0296185
2.97899e-05
-5.22419e-05
0.0292836
8.32046e-05
5.20796e-05
0.0290734
0.000106794
0.000118096
0.0292836
8.32073e-05
0.000113202
0.0296185
2.97945e-05
6.34811e-05
0.0298727
-2.70321e-05
0.0299937
-6.35404e-05
-0.000170784
0.030389
-0.000170795
-0.000314468
0.0301588
-8.0575e-05
-0.000343011
0.0296093
6.09276e-05
-0.000156421
0.0287433
0.000201181
0.000156265
0.0280126
0.000270461
0.000342874
0.0287433
0.000201183
0.000314372
0.0296093
6.09325e-05
0.000170739
0.0301588
-8.05692e-05
0.0303891
-0.000170793
-0.000395381
0.031245
-0.000395389
-0.000777968
0.0308402
-0.000179254
-0.000927937
0.0297187
0.000163365
-0.000449808
0.0274814
0.000536129
0.00044966
0.0245347
0.000763041
0.000927807
0.0274814
0.000536132
0.000777877
0.0297187
0.000163369
0.000395339
0.0308402
-0.000179249
0.0312451
-0.000395388
-0.000848924
0.0329108
-0.00084893
-0.00184497
0.0323367
-0.000355829
-0.00254553
0.0304439
0.00043711
-0.0013556
0.0252908
0.00144497
0.00135545
0.0116781
0.00231453
0.00254541
0.0252908
0.00144497
0.00184488
0.0304439
0.000437115
0.000848885
0.0323367
-0.000355824
0.0329109
-0.000848927
-0.00164846
0.0357249
-0.00164846
-0.0041325
0.0352398
-0.000623961
-0.00726822
0.0334328
0.00105334
-0.00443471
0.0275017
0.00376868
0.00443458
0.00694952
0.00772059
0.0072681
0.0275017
0.00376868
0.00413242
0.0334328
0.00105334
0.00164842
0.0352398
-0.000623956
0.035725
-0.00164846
-0.00263692
0.0395093
-0.00263692
-0.00800322
0.0395082
-0.000895165
-0.0220169
0.0395066
0.00201109
-0.0161365
0.0395051
0.0085681
0.0161364
0.0395046
0.0793151
0.0220169
0.0395051
0.0085681
0.00800314
0.0395066
0.0020111
0.00263689
0.0395082
-0.000895159
0.0395093
-0.00263692
-0.00263778
0.0432958
-0.00263777
-0.00800453
0.0437783
-0.000896029
-0.0220181
0.0455813
0.00201022
-0.016137
0.0515088
0.0085672
0.0161369
0.0720596
0.079314
0.022018
0.0515088
0.0085672
0.00800446
0.0455814
0.00201022
0.00263774
0.0437783
-0.000896024
0.0432958
-0.00263777
-0.0016514
0.0461173
-0.00165139
-0.004137
0.0466872
-0.00062694
-0.00727217
0.0485733
0.00105028
-0.00443626
0.0537207
0.00376556
0.00443615
0.0673312
0.00771744
0.00727208
0.0537207
0.00376556
0.00413694
0.0485734
0.00105029
0.00165137
0.0466872
-0.000626935
0.0461173
-0.00165139
-0.000855281
0.0477992
-0.000855268
-0.0018547
0.0481962
-0.000362298
-0.00255407
0.0493056
0.000430441
-0.00135895
0.0515323
0.00143812
0.00135886
0.0544749
0.0023076
0.002554
0.0515323
0.00143812
0.00185465
0.0493056
0.000430444
0.000855255
0.0481962
-0.000362295
0.0477992
-0.000855268
-0.000407999
0.048687
-0.000407983
-0.000797278
0.0489024
-0.000192181
-0.000944894
0.0494292
0.000149924
-0.000456478
0.0502753
0.000522236
0.000456408
0.0509981
0.000748969
0.000944833
0.0502753
0.000522237
0.000797234
0.0494292
0.000149927
0.000407975
0.0489024
-0.000192177
0.048687
-0.000407978
-0.000195233
0.0491438
-0.000195214
-0.000351888
0.0492368
-0.000105847
-0.000375875
0.0494481
3.43436e-05
-0.000169361
0.0497454
0.000173446
0.000169307
0.0499409
0.000242273
0.000375829
0.0497454
0.000173446
0.000351853
0.0494481
3.43456e-05
0.000195214
0.0492368
-0.000105844
0.0491439
-0.000195209
-0.000110404
0.0494148
-0.000110381
-0.000185042
0.0494312
-7.60571e-05
-0.000181237
0.049479
-2.25749e-05
-7.70637e-05
0.0495533
2.79138e-05
7.70243e-05
0.0495994
5.03527e-05
0.000181202
0.0495533
2.79148e-05
0.000185017
0.049479
-2.25726e-05
0.000110388
0.0494312
-7.60536e-05
0.0494149
-0.000110375
-9.56528e-05
0.0496532
-9.5626e-05
-0.000151212
0.0496126
-8.71175e-05
-0.000138115
0.0495576
-7.38452e-05
-5.60045e-05
0.0495193
-6.13555e-05
5.5982e-05
0.0495083
-5.59361e-05
0.000138097
0.0495193
-6.13548e-05
0.000151198
0.0495577
-7.38439e-05
9.5643e-05
0.0496126
-8.71153e-05
0.0496533
-9.56204e-05
-0.00012949
0.0499727
-0.000129459
-0.000199529
0.0498746
-0.000139506
-0.00017656
0.0497257
-0.000154905
-7.00094e-05
0.0496002
-0.000167964
7.00021e-05
0.0495525
-0.000172918
0.000176554
0.0496002
-0.000167963
0.000199523
0.0497258
-0.000154904
0.000129483
0.0498746
-0.000139503
0.0499728
-0.000129452
-0.000212713
0.0504886
-0.000212679
-0.000325615
0.050324
-0.000250848
-0.000285484
0.0500683
-0.000309965
-0.000112403
0.0498526
-0.000360469
0.000112414
0.0497706
-0.000379889
0.000285494
0.0498526
-0.000360468
0.00032562
0.0500683
-0.000309964
0.000212712
0.0503241
-0.000250846
0.0504886
-0.000212672
-0.000357555
0.0513335
-0.000357517
-0.000546438
0.0511145
-0.0004591
-0.000476775
0.0507591
-0.000619388
-0.000186828
0.0504722
-0.000753605
0.000186855
0.0503672
-0.00080439
0.0004768
0.0504722
-0.000753605
0.000546452
0.0507591
-0.000619388
0.000357556
0.0511146
-0.000459098
0.0513335
-0.000357509
-0.000569458
0.0526164
-0.000569418
-0.000870395
0.052456
-0.000825067
-0.00075434
0.0521387
-0.00124631
-0.000293225
0.051927
-0.00158442
0.000293269
0.0518623
-0.00170845
0.00075438
0.051927
-0.00158442
0.00087042
0.0521387
-0.00124631
0.000569465
0.0524561
-0.000825066
0.0526165
-0.000569411
-0.000794203
0.05422
-0.000794163
-0.00121837
0.0545181
-0.0014123
-0.0010421
0.0547994
-0.00253536
-0.00039786
0.0551709
-0.00336327
0.000397921
0.0553443
-0.00365147
0.00104215
0.0551709
-0.00336327
0.0012184
0.0547994
-0.00253536
0.000794212
0.0545182
-0.00141229
0.05422
-0.000794152
-0.000770814
0.0552272
-0.000770774
-0.00120522
0.0568763
-0.00213933
-0.000994474
0.0592945
-0.00524136
-0.000358549
0.0613956
-0.00716247
0.000358625
0.0622043
-0.00777746
0.000994541
0.0613956
-0.00716247
0.00120526
0.0592945
-0.00524136
0.000770823
0.0568764
-0.00213933
0.0552272
-0.000770757
0.000284757
0.0529362
0.000284801
0.000348635
0.0565854
-0.00202056
0.000395697
0.0624984
-0.0110979
0.000212374
0.0671097
-0.0149562
-0.000212285
0.0687781
-0.016056
-0.000395622
0.0671097
-0.0149562
-0.000348593
0.0624984
-0.0110979
-0.00028475
0.0565854
-0.00202055
0.0529362
0.000284819
0.00386663
0.0433468
0.00386667
0.00581437
0.0478754
0.00437542
0.00499687
0.0554018
0.00282695
0.00194107
0.0609135
0.0032718
-0.00194098
0.0628402
0.00343408
-0.00499679
0.0609135
0.0032718
-0.00581432
0.0554019
0.00282695
-0.00386662
0.0478754
0.00437543
0.0433469
0.00386669
0.00885872
0.0247004
0.00885873
0.0134156
0.0277274
0.0151352
0.0112083
0.0327006
0.0334152
0.00419244
0.0361783
0.042057
-0.00419235
0.0373657
0.0445202
-0.0112082
0.0361783
0.042057
-0.0134155
0.0327006
0.0334152
-0.00885868
0.0277274
0.0151352
0.0247004
0.00885874
0.0118763
0.0118763
0.0178405
0.0208059
0.0146606
0.0456082
0.00539932
0.053655
-0.00539923
0.0556137
-0.0146605
0.053655
-0.0178405
0.0456081
-0.0118763
0.0208059
0.0118763
0.0343747
0.0252017
0.031548
0.0238866
0.0184237
0.0238865
0.0159566
0.0143556
0.0177326
0.00586371
0.0113086
0.00946005
-0.00586389
0.0103244
0.00717892
-0.0159567
0.0113086
0.00946005
-0.0238867
0.0143556
0.0177326
-0.0343748
0.0184237
0.0238865
0.0252017
0.031548
0.0308085
0.0426457
0.0262371
0.019821
0.0314277
0.0198209
0.0131644
0.025045
0.014838
0.00484666
0.0202487
0.00792439
-0.00484682
0.01871
0.00607343
-0.0131645
0.0202487
0.00792439
-0.0198211
0.0250451
0.014838
-0.0308086
0.0314277
0.0198209
0.0426457
0.0262371
0.00781684
0.0425608
0.0122034
0.00999095
0.034761
0.00999091
0.00760242
0.0294576
0.00756516
0.00284953
0.0254252
0.00505025
-0.0028497
0.0240761
0.00418554
-0.00760257
0.0254252
0.00505026
-0.00999106
0.0294576
0.00756517
-0.0078169
0.034761
0.00999092
0.0425607
0.0122035
0.0035477
0.0360406
0.00574127
0.00493691
0.0331018
0.00493685
0.00400457
0.0301002
0.0039008
0.00152581
0.0277572
0.00294147
-0.00152598
0.0269156
0.00258207
-0.00400472
0.0277572
0.00294148
-0.00493702
0.0301002
0.00390081
-0.00354776
0.0331018
0.00493687
0.0360406
0.00574129
0.00167486
0.0328035
0.00273789
0.00243606
0.031568
0.002436
0.00204484
0.0300254
0.00201471
0.000788815
0.0287808
0.001641
-0.00078899
0.028316
0.00149674
-0.00204499
0.0287808
0.00164101
-0.00243617
0.0300254
0.00201473
-0.00167491
0.031568
0.00243602
0.0328034
0.00273791
0.000810678
0.0312079
0.00132222
0.001207
0.0306487
0.00120695
0.00103298
0.029877
0.00103931
0.000401891
0.0292363
0.000892736
-0.000402068
0.0289918
0.000835546
-0.00103313
0.0292363
0.000892744
-0.00120712
0.029877
0.00103933
-0.000810736
0.0306487
0.00120697
0.0312079
0.00132224
0.000398437
0.0304201
0.000644754
0.000600711
0.0301547
0.000600661
0.000519852
0.0297694
0.000535123
0.000203361
0.0294426
0.000478019
-0.000203538
0.0293162
0.000455646
-0.000520008
0.0294426
0.000478028
-0.000600824
0.0297694
0.000535139
-0.000398493
0.0301547
0.000600683
0.0304201
0.000644771
0.00019703
0.0300314
0.000314916
0.000298997
0.0299005
0.000298952
0.000260322
0.029705
0.000274969
0.000102143
0.0295362
0.000254082
-0.000102319
0.0294702
0.000245889
-0.000260478
0.0295362
0.000254091
-0.00029911
0.029705
0.000274986
-0.000197086
0.0299005
0.000298972
0.0300314
0.000314933
9.60488e-05
0.0298444
0.000149116
0.000145951
0.0297756
0.000145911
0.000127177
0.0296698
0.000141124
4.98838e-05
0.0295755
0.000137012
-5.00579e-05
0.0295378
0.000135423
-0.00012733
0.0295755
0.00013702
-0.000146063
0.0296698
0.000141141
-9.61043e-05
0.0297756
0.000145932
0.0298444
0.000149134
4.22584e-05
0.0297679
5.67028e-05
6.31717e-05
0.029725
6.31363e-05
5.39209e-05
0.029653
7.30244e-05
2.0813e-05
0.0295824
8.18854e-05
-2.09842e-05
0.0295518
8.54879e-05
-5.40712e-05
0.0295825
8.1894e-05
-6.32805e-05
0.029653
7.30403e-05
-4.23124e-05
0.029725
6.31563e-05
0.0297679
5.67202e-05
7.5218e-06
0.0297713
-1.49242e-05
7.10753e-06
0.0297324
7.07726e-06
1.527e-06
0.0296527
4.06782e-05
-7.40302e-07
0.0295579
7.08633e-05
5.73493e-07
0.0295096
8.32777e-05
-1.67352e-06
0.0295579
7.08717e-05
-7.21383e-06
0.0296527
4.06937e-05
-7.57492e-06
0.0297324
7.0975e-06
0.0297713
-1.49058e-05
-2.70231e-05
0.0298727
-0.000113326
-5.53835e-05
0.0298213
-5.54084e-05
-6.41539e-05
0.0296837
3.23278e-05
-2.97607e-05
0.0294841
0.000112224
2.95991e-05
0.0293622
0.000146322
6.40122e-05
0.0294841
0.000112232
5.52811e-05
0.0296837
3.23427e-05
2.69722e-05
0.0298213
-5.53893e-05
0.0298727
-0.000113308
-8.05641e-05
0.0301588
-0.000314487
-0.000167277
0.0300825
-0.000167296
-0.000197977
0.0298074
5.18001e-05
-9.32965e-05
0.0293294
0.000256357
9.31415e-05
0.0289684
0.000350566
0.000197841
0.0293294
0.000256365
0.000167178
0.0298074
5.18145e-05
8.05143e-05
0.0300825
-0.000167277
0.0301588
-0.000314469
-0.000179246
0.0308402
-0.000777981
-0.000407085
0.0307415
-0.000407098
-0.000523356
0.0302187
0.000125271
-0.000258741
0.0291196
0.000644217
0.000258593
0.0280197
0.000920998
0.000523226
0.0291196
0.000644224
0.000406991
0.0302188
0.000125284
0.000179199
0.0307415
-0.000407081
0.0308402
-0.000777965
-0.000355824
0.0323367
-0.00184498
-0.00091994
0.0322487
-0.000919943
-0.00133092
0.0314405
0.000316823
-0.000703371
0.029349
0.00161336
0.000703229
0.0263245
0.00251357
0.0013308
0.029349
0.00161336
0.000919851
0.0314406
0.000316836
0.00035578
0.0322487
-0.000919928
0.0323367
-0.00184496
-0.00062396
0.0352398
-0.0041325
-0.00189765
0.0351964
-0.00189765
-0.00321139
0.0344717
0.000727084
-0.00184777
0.0323304
0.00382508
0.00184764
0.0285616
0.00715672
0.00321127
0.0323304
0.00382509
0.00189757
0.0344717
0.000727092
0.000623921
0.0351965
-0.00189763
0.0352398
-0.00413249
-0.00089517
0.0395082
-0.00800322
-0.00322519
0.0395071
-0.00322518
-0.00665863
0.0395054
0.00133006
-0.00423039
0.039504
0.00774674
0.00423027
0.0395034
0.0217188
0.00665853
0.039504
0.00774675
0.00322511
0.0395054
0.00133006
0.000895131
0.0395071
-0.00322517
0.0395082
-0.00800321
-0.00089603
0.0437783
-0.00800453
-0.00322651
0.0438189
-0.0032265
-0.0066598
0.0445395
0.00132871
-0.00423084
0.0466772
0.00774537
0.00423073
0.0504447
0.0217174
0.0066597
0.0466772
0.00774537
0.00322644
0.0445395
0.00132872
0.000895996
0.0438189
-0.00322648
0.0437783
-0.00800447
-0.000626948
0.0466872
-0.00413699
-0.00190222
0.0467706
-0.0019022
-0.0032154
0.0475721
0.000722413
-0.00184934
0.0496577
0.00382031
0.00184925
0.0526799
0.00715191
0.00321532
0.0496577
0.00382031
0.00190216
0.0475721
0.000722424
0.00062692
0.0467707
-0.00190219
0.0466872
-0.00413697
-0.00036231
0.0481962
-0.00185467
-0.000929863
0.0482866
-0.000929839
-0.00133963
0.0487969
0.000306621
-0.000706791
0.0498851
0.00160289
0.000706709
0.0509807
0.00250299
0.00133956
0.0498851
0.00160289
0.000929813
0.0487969
0.000306628
0.000362284
0.0482867
-0.000929831
0.0481962
-0.00185467
-0.000192197
0.0489024
-0.000797249
-0.000426907
0.048963
-0.000426877
-0.000540765
0.0492143
0.000104704
-0.000265589
0.0496714
0.000622957
0.00026552
0.0500242
0.000899463
0.000540705
0.0496714
0.00062296
0.000426863
0.0492143
0.00010471
0.000192174
0.0489631
-0.000426868
0.0489024
-0.000797238
-0.000105866
0.0492368
-0.000351851
-0.000206007
0.0492582
-0.000205969
-0.000231993
0.04935
1.11177e-05
-0.000106691
0.0495096
0.000213912
0.000106638
0.0496158
0.000307426
0.000231947
0.0495096
0.000213915
0.000205974
0.0493501
1.11227e-05
0.000105849
0.0492583
-0.000205963
0.0492368
-0.000351843
-7.60805e-05
0.0494312
-0.000184999
-0.000130463
0.0494128
-0.000130418
-0.000130081
0.0494048
-4.77996e-05
-5.57364e-05
0.0494231
2.76198e-05
5.56981e-05
0.0494414
5.99564e-05
0.000130049
0.0494231
2.76218e-05
0.00013044
0.0494049
-4.77957e-05
7.60681e-05
0.0494128
-0.000130413
0.0494312
-0.00018499
-8.71448e-05
0.0496126
-0.000151162
-0.000137719
0.0495464
-0.000137666
-0.000125565
0.0494515
-0.000117112
-5.08138e-05
0.049377
-9.82958e-05
5.07917e-05
0.0493509
-9.03347e-05
0.000125547
0.049377
-9.82942e-05
0.000137706
0.0494515
-0.00011711
8.7138e-05
0.0495465
-0.000137663
0.0496126
-0.000151156
-0.000139537
0.0498746
-0.000199471
-0.000214759
0.0497376
-0.0002147
-0.00018966
0.049528
-0.000238144
-7.50786e-05
0.0493508
-0.000258129
7.50729e-05
0.0492832
-0.00026575
0.000189656
0.0493508
-0.000258128
0.000214756
0.0495281
-0.000238143
0.000139535
0.0497377
-0.000214698
0.0498746
-0.000199466
-0.000250882
0.050324
-0.00032555
-0.0003839
0.0500742
-0.000383834
-0.000336064
0.0496799
-0.000474169
-0.000132107
0.0493517
-0.000551378
0.000132118
0.0492281
-0.000581077
0.000336075
0.0493517
-0.000551378
0.000383909
0.04968
-0.000474169
0.000250886
0.0500743
-0.000383835
0.0503241
-0.000325547
-0.000459138
0.0511145
-0.000546368
-0.000701841
0.0506998
-0.000701769
-0.000610791
0.0500017
-0.000947341
-0.00023859
0.0494551
-0.00115296
0.000238618
0.0492586
-0.00123076
0.000610817
0.0494551
-0.00115296
0.000701859
0.0500017
-0.000947346
0.000459145
0.0506999
-0.000701771
0.0511146
-0.000546366
-0.000825108
0.052456
-0.000870321
-0.00126336
0.0518925
-0.00126328
-0.00108921
0.0507521
-0.0019136
-0.000420366
0.0499907
-0.00243489
0.000420412
0.0497463
-0.002626
0.00108925
0.0499907
-0.00243489
0.00126339
0.0507521
-0.0019136
0.00082512
0.0518925
-0.00126329
0.0524561
-0.00087032
-0.00141234
0.0545181
-0.00121829
-0.00217992
0.054239
-0.00217984
-0.00184543
0.0528747
-0.0039489
-0.000693354
0.0523883
-0.00524585
0.000693421
0.0523129
-0.00569639
0.00184549
0.0523883
-0.00524585
0.00217996
0.0528747
-0.00394891
0.00141235
0.0542391
-0.00217985
0.0545182
-0.00121829
-0.00213937
0.0568763
-0.00120514
-0.00339105
0.0587562
-0.00339097
-0.00276222
0.0609027
-0.00851305
-0.000971414
0.0631986
-0.0116366
0.000971491
0.064108
-0.0126323
0.00276228
0.0631986
-0.0116366
0.00339109
0.0609028
-0.00851305
0.00213939
0.0587563
-0.00339097
0.0568764
-0.00120513
-0.00202061
0.0565854
0.000348715
-0.00354641
0.0627406
-0.00354632
-0.00258493
0.0741005
-0.0200746
-0.000704076
0.0819628
-0.0269304
0.000704169
0.0846265
-0.0288847
0.00258501
0.0819628
-0.0269304
0.00354646
0.0741005
-0.0200746
0.00202062
0.0627407
-0.00354632
0.0565854
0.000348724
0.00437537
0.0478755
0.00581445
0.00644419
0.0563157
0.00644428
0.00562488
0.0730213
0.00224464
0.0830375
-0.00224454
0.08623
-0.00562479
0.0830375
-0.00644413
0.0730213
-0.00437535
0.0563157
0.00644429
0.0478755
0.00581445
0.0151351
0.0277274
0.0134156
0.0233558
0.0333603
0.0233558
0.0187761
0.0441956
0.0549536
0.00660582
0.0499116
0.0693391
-0.00660573
0.051632
0.0734101
-0.018776
0.0499116
0.0693391
-0.0233557
0.0441956
0.0549536
-0.0151351
0.0333602
0.0233558
0.0277274
0.0134156
0.0208058
0.0178406
0.0314097
0.0314098
0.0241943
0.0708524
0.00814342
0.0824032
-0.00814333
0.0851196
-0.0241942
0.0824031
-0.0314097
0.0708523
-0.0208058
0.0314098
0.0178406
0.0299102
0.0199093
0.0263001
0.0177326
0.0143556
0.0159565
0.0105681
0.0114469
0.0105681
0.00364596
0.00975609
0.00670843
-0.00364611
0.00920193
0.00544766
-0.0105682
0.00975609
0.00670844
-0.0177327
0.0114468
0.0105681
-0.0299103
0.0143556
0.0159565
0.0199093
0.0263001
0.0271881
0.0343227
0.0219628
0.014838
0.0250451
0.0131643
0.00879691
0.0204579
0.00879682
0.00304677
0.0178054
0.00566922
-0.00304692
0.0169345
0.00465063
-0.00879703
0.0178053
0.00566923
-0.0148381
0.0204578
0.00879688
-0.0271881
0.025045
0.0131643
0.0343227
0.0219628
0.00611623
0.035815
0.0101101
0.00756522
0.0294576
0.00760235
0.00549489
0.0255993
0.00549482
0.00200024
0.0231858
0.00389735
-0.0020004
0.0223662
0.00333488
-0.00549503
0.0231857
0.00389737
-0.00756532
0.0255993
0.00549484
-0.00611629
0.0294576
0.00760238
0.035815
0.0101102
0.0028396
0.0324083
0.00481028
0.00390086
0.0301002
0.0040045
0.00310714
0.0278512
0.00310706
0.00116919
0.0262454
0.0023936
-0.00116935
0.0256711
0.00213009
-0.00310728
0.0262454
0.00239361
-0.00390096
0.0278512
0.00310709
-0.00283965
0.0301002
0.00400453
0.0324083
0.00481031
0.00139161
0.0310096
0.00232689
0.00201477
0.0300254
0.00204477
0.00167966
0.0288168
0.00167959
0.000644697
0.0278771
0.00137909
-0.000644863
0.0275284
0.00126507
-0.0016798
0.0278772
0.00137911
-0.00201488
0.0288168
0.00167961
-0.00139166
0.0300254
0.0020448
0.0310096
0.00232693
0.00069913
0.0303379
0.00113692
0.00103936
0.029877
0.00103291
0.000887324
0.0292443
0.00088726
0.000344561
0.0287266
0.000764581
-0.000344728
0.0285298
0.000717308
-0.000887475
0.0287266
0.000764595
-0.00103947
0.0292443
0.000887285
-0.000699185
0.029877
0.00103295
0.0303379
0.00113695
0.00035511
0.0299956
0.000558929
0.000535171
0.0297694
0.000519792
0.000462765
0.0294416
0.000462706
0.000180905
0.0291651
0.000413893
-0.000181073
0.0290583
0.000394918
-0.000462914
0.0291651
0.000413907
-0.00053528
0.0294416
0.000462732
-0.000355165
0.0297694
0.000519828
0.0299956
0.000558967
0.000181231
0.0298181
0.000274332
0.000275014
0.0297051
0.000260268
0.000239399
0.0295364
0.000239345
9.39145e-05
0.0293909
0.000221302
-9.40815e-05
0.0293341
0.00021426
-0.000239547
0.0293909
0.000221316
-0.000275122
0.0295364
0.000239371
-0.000181286
0.0297051
0.000260303
0.0298181
0.00027437
9.28774e-05
0.0297251
0.000129913
0.000141165
0.0296698
0.000127129
0.000123038
0.0295844
0.000122989
4.82698e-05
0.0295082
0.00011945
-4.84347e-05
0.0294778
0.000118087
-0.000123183
0.0295082
0.000119464
-0.000141271
0.0295844
0.000123016
-9.29315e-05
0.0296698
0.000127164
0.0297251
0.000129951
4.86677e-05
0.0296746
4.80819e-05
7.30597e-05
0.029653
5.38793e-05
6.27299e-05
0.0296137
6.26879e-05
2.4335e-05
0.0295728
7.04839e-05
-2.44969e-05
0.0295547
7.36221e-05
-6.28725e-05
0.0295728
7.04976e-05
-7.31641e-05
0.0296137
6.27135e-05
-4.87208e-05
0.029653
5.39132e-05
0.0296746
4.81181e-05
2.93269e-05
0.0296432
-1.85051e-05
4.07082e-05
0.0296527
1.49206e-06
3.15137e-05
0.0296463
3.14784e-05
1.12788e-05
0.02962
5.78923e-05
-1.14367e-05
0.029603
6.85683e-05
-3.16526e-05
0.02962
5.79056e-05
-4.08097e-05
0.0296463
3.15032e-05
-2.93786e-05
0.0296527
1.52511e-06
0.0296432
-1.84693e-05
2.98034e-05
0.0296185
-0.000118266
3.23525e-05
0.0296837
-6.4182e-05
1.49235e-05
0.0297184
1.48951e-05
2.2836e-06
0.0296879
8.42836e-05
-2.43648e-06
0.0296537
0.000112851
-1.5058e-05
0.0296879
8.42962e-05
-3.24507e-05
0.0297184
1.4919e-05
-2.98533e-05
0.0296837
-6.41502e-05
0.0296186
-0.000118231
6.09382e-05
0.0296093
-0.000343031
5.18192e-05
0.0298074
-0.000197998
3.24565e-06
0.029921
3.2244e-06
-1.00083e-05
0.0298538
0.000178166
9.86137e-06
0.0297571
0.000252905
-3.37465e-06
0.0298538
0.000178178
-5.19133e-05
0.029921
3.24715e-06
-6.09863e-05
0.0298074
-0.000197967
0.0296094
-0.000342998
0.000163372
0.0297187
-0.00092795
0.000125284
0.0302187
-0.000523369
-1.74591e-05
0.0304848
-1.74731e-05
-4.11974e-05
0.0303196
0.000413195
4.10574e-05
0.0300512
0.000610378
1.73362e-05
0.0303196
0.000413206
-0.000125373
0.0304848
-1.74516e-05
-0.000163418
0.0302188
-0.000523341
0.0297187
-0.000927919
0.000437116
0.0304439
-0.00254554
0.00031683
0.0314405
-0.00133092
-8.1929e-05
0.0319112
-8.19357e-05
-0.000130405
0.0315883
0.000935522
0.000130272
0.0309896
0.00146245
8.18132e-05
0.0315883
0.000935533
-0.000316915
0.0319112
-8.19154e-05
-0.000437158
0.0314406
-0.0013309
0.0304439
-0.00254551
0.00105334
0.0334328
-0.00726821
0.000727085
0.0344717
-0.00321139
-0.000265141
0.0349246
-0.00026514
-0.000354387
0.0345947
0.0019379
0.000354264
0.0339313
0.00333725
0.000265033
0.0345947
0.00193791
-0.000727163
0.0349246
-0.000265122
-0.00105338
0.0344717
-0.00321136
0.0334328
-0.00726819
0.00201109
0.0395066
-0.022017
0.00133005
0.0395054
-0.00665863
-0.000608115
0.0395037
-0.000608107
-0.000738814
0.0395022
0.00329316
0.000738701
0.0395016
0.00662987
0.000608016
0.0395022
0.00329317
-0.00133012
0.0395038
-0.00060809
-0.00201113
0.0395055
-0.00665861
0.0395066
-0.0220169
0.00201021
0.0455813
-0.0220181
0.0013287
0.0445395
-0.00665978
-0.000609303
0.0440825
-0.000609287
-0.000739282
0.0444087
0.00329196
0.000739178
0.0450706
0.00662864
0.000609213
0.0444087
0.00329197
-0.00132877
0.0440825
-0.00060927
-0.00201024
0.0445396
-0.00665976
0.0455814
-0.022018
0.00105027
0.0485734
-0.00727214
0.000722398
0.0475721
-0.00321538
-0.000269256
0.0470945
-0.000269232
-0.000356002
0.0474112
0.00193372
0.00035591
0.0480075
0.00333304
0.000269176
0.0474112
0.00193373
-0.000722453
0.0470945
-0.000269218
-0.0010503
0.0475721
-0.00321536
0.0485734
-0.00727212
0.00043043
0.0493056
-0.00255404
0.000306597
0.0487969
-0.0013396
-9.09151e-05
0.0485178
-9.08827e-05
-0.000133935
0.0486715
0.000926339
0.000133857
0.0489353
0.00145316
9.08469e-05
0.0486715
0.000926347
-0.000306647
0.0485178
-9.08711e-05
-0.000430454
0.0487969
-0.00133959
0.0493056
-0.00255402
0.000149909
0.0494292
-0.000944854
0.000104674
0.0492143
-0.000540724
-3.55617e-05
0.0490754
-3.55207e-05
-4.832e-05
0.0491201
0.000394538
4.8255e-05
0.049208
0.000591478
3.55055e-05
0.0491201
0.000394543
-0.000104714
0.0490754
-3.55115e-05
-0.000149929
0.0492144
-0.000540712
0.0494292
-0.00094484
3.43247e-05
0.0494481
-0.000375827
1.10805e-05
0.04935
-0.000231943
-3.25358e-05
0.0492654
-3.24857e-05
-2.41008e-05
0.049252
0.000140908
2.405e-05
0.049269
0.000215034
3.2492e-05
0.049252
0.000140911
-1.11115e-05
0.0492654
-3.24785e-05
-3.43404e-05
0.0493501
-0.000231934
0.0494481
-0.000375816
-2.25975e-05
0.049479
-0.000181179
-4.78442e-05
0.0494048
-0.000130022
-5.54924e-05
0.0493126
-5.54329e-05
-2.54622e-05
0.0492526
1.00281e-05
2.54261e-05
0.0492359
3.70491e-05
5.54618e-05
0.0492527
1.00308e-05
4.78226e-05
0.0493126
-5.54281e-05
2.25865e-05
0.0494049
-0.000130016
0.0494791
-0.000181171
-7.38716e-05
0.0495576
-0.000138049
-0.000117164
0.0494515
-0.000125496
-0.000106996
0.0492953
-0.000106927
-4.3286e-05
0.0491665
-9.04674e-05
4.32651e-05
0.0491184
-8.36938e-05
0.000106979
0.0491665
-9.04657e-05
0.000117153
0.0492953
-0.000106925
7.38662e-05
0.0494516
-0.000125493
0.0495577
-0.000138046
-0.000154935
0.0497257
-0.000176485
-0.000238203
0.049528
-0.000189583
-0.000209931
0.0492228
-0.000209853
-8.29525e-05
0.0489648
-0.000227247
8.2947e-05
0.0488663
-0.000233919
0.000209927
0.0489648
-0.000227247
0.000238201
0.0492228
-0.000209853
0.000154935
0.0495281
-0.000189582
0.0497258
-0.000176483
-0.000309998
0.0500683
-0.0002854
-0.000474235
0.0496799
-0.000335979
-0.000414446
0.0490557
-0.00041436
-0.000162622
0.0485438
-0.000481468
0.000162633
0.048353
-0.000507316
0.000414456
0.0485439
-0.000481469
0.000474243
0.0490558
-0.000414361
0.000310003
0.04968
-0.000335982
0.0500683
-0.000285402
-0.000619425
0.0507591
-0.000476686
-0.000947413
0.0500017
-0.000610698
-0.000822266
0.0486641
-0.000822172
-0.000320065
0.0476557
-0.000999818
0.000320091
0.0473001
-0.00106718
0.000822289
0.0476557
-0.000999824
0.000947431
0.0486642
-0.000822179
0.000619435
0.0500017
-0.000610704
0.0507591
-0.000476692
-0.00124635
0.0521387
-0.000754245
-0.00191368
0.0507521
-0.00108911
-0.00164097
0.0476143
-0.00164087
-0.000628229
0.0456755
-0.00208649
0.000628271
0.0450623
-0.00225059
0.00164101
0.0456755
-0.00208649
0.0019137
0.0476143
-0.00164088
0.00124636
0.0507521
-0.00108912
0.0521388
-0.000754253
-0.0025354
0.0547994
-0.001042
-0.00394898
0.0528747
-0.00184534
-0.00330584
0.0441665
-0.00330574
-0.00121848
0.0407825
-0.00439508
0.00121854
0.0399021
-0.00477694
0.00330589
0.0407825
-0.00439508
0.00394902
0.0441665
-0.00330574
0.00253542
0.0528747
-0.00184535
0.0547994
-0.001042
-0.0052414
0.0592945
-0.000994377
-0.00851313
0.0609027
-0.00276212
-0.00678599
0.0300703
-0.00678589
-0.00228178
0.0266715
-0.0093354
0.00228186
0.025912
-0.0101618
0.00678606
0.0266716
-0.0093354
0.00851318
0.0300704
-0.00678589
0.00524142
0.0609028
-0.00276212
0.0592945
-0.000994382
-0.0110979
0.0624984
0.000395796
-0.0200747
0.0741005
-0.00258482
-0.0145175
-0.0145174
-0.00382929
-0.0198658
0.00382938
-0.0214292
0.0145176
-0.0198658
0.0200747
-0.0145174
0.0110979
0.0741006
-0.00258483
0.0624984
0.000395786
0.00282693
0.0554019
0.00499697
0.0730213
0.00562499
-0.00282694
0.0730213
0.00562497
0.0554019
0.00499695
0.0334152
0.0327006
0.0112084
0.0549536
0.0441956
0.0187762
0.0416674
0.0855819
0.0416675
0.0128841
0.0788796
0.0527569
-0.012884
0.0769421
0.0559816
-0.0416673
0.0788796
0.0527569
-0.0549535
0.0855819
0.0416674
-0.0334151
0.0441956
0.0187762
0.0327006
0.0112084
0.0456081
0.0146607
0.0708523
0.0241944
0.0479817
0.159777
0.0479818
0.0126608
0.144217
0.0561338
-0.0126607
0.140228
0.0582045
-0.0479816
0.144217
0.0561338
-0.0708522
0.159777
0.0479817
-0.0456081
0.0241943
0.0146606
0.00761446
0.176332
0.0076145
0.0044673
0.164667
0.00853263
-0.0044673
0.161246
0.00888927
-0.00761445
0.164667
0.00853257
0.176332
0.00761447
0.00254545
0.165307
0.00254547
0.00152832
0.161582
0.00273946
-0.00152834
0.159996
0.00282876
-0.00254546
0.161582
0.00273946