/*--------------------------------*- C++ -*----------------------------------*\
  =========                 |
  \\      /  F ield         | OpenFOAM: The Open Source CFD Toolbox
   \\    /   O peration     | Website:  https://openfoam.org
    \\  /    A nd           | Version:  6
     \\/     M anipulation  |
\*---------------------------------------------------------------------------*/
FoamFile
{
    version     2.0;
    format      ascii;
    class       volScalarField;
    location    "0.2";
    object      T;
}
// * * * * * * * * * * * * * * * * * * * * * * * * * * * * * * * * * * * * * //

dimensions      [0 0 0 1 0 0 0];

internalField   nonuniform List<scalar> 
3029
(
278.709
272.938
303.82
254.507
464.925
254.506
303.819
272.938
278.709
315.074
320.319
341.145
281.347
503.105
281.347
341.145
320.319
315.074
257.794
264.937
294.439
291.709
511.366
291.708
294.438
264.936
257.794
264.795
263.86
299.445
329.881
534.834
329.88
299.444
263.859
264.795
294.45
292.304
335.525
393.25
573.029
393.248
335.524
292.303
294.45
350.268
350.934
401.276
472.103
618.946
472.1
401.273
350.932
350.266
429.722
432.801
484.402
553.965
666.143
553.961
484.398
432.798
429.72
519.104
522.77
569.272
628.879
709.942
628.875
569.266
522.766
519.101
604.014
607.021
644.91
691.631
747.659
691.627
644.904
607.015
604.009
675.849
677.815
706.545
741.046
778.435
741.041
706.538
677.808
675.843
731.829
732.906
753.737
778.414
802.878
778.41
753.728
732.898
731.822
772.7
773.239
788.191
806.118
822.126
806.113
788.182
773.23
772.692
800.729
800.936
812.324
829.228
848.412
829.224
812.316
800.927
800.721
818.739
818.245
827.126
840.128
842.693
840.124
827.119
818.235
818.73
830.921
826.935
830.972
903.274
1282.33
903.268
830.964
826.926
830.912
843.287
831.423
811.473
732.441
682.881
732.437
811.467
831.414
843.278
878.148
870.802
755.05
402.725
486.99
402.724
755.045
870.794
878.139
922.232
899.146
643.869
252.334
461.94
252.334
643.865
899.137
922.222
943.77
891.439
560.89
203.68
377.801
203.679
560.888
891.43
943.761
947.385
876.883
531.107
208.816
398.662
208.815
531.105
876.876
947.377
942.216
865.389
533.738
236.172
420.916
236.171
533.738
865.383
942.209
933.355
857.368
553.121
277.977
444.028
277.976
553.121
857.362
933.348
923.109
851.686
580.769
330.97
474.05
330.969
580.769
851.681
923.102
912.572
847.523
611.882
390.953
511.02
390.952
611.882
847.518
912.564
902.282
844.325
643.376
453.239
551.914
453.238
643.375
844.321
902.275
892.447
841.58
673.064
513.721
593.379
513.72
673.063
841.576
892.442
883.105
838.767
699.531
569.394
632.759
569.393
699.531
838.763
883.1
874.381
835.1
720.394
616.525
666.191
616.524
720.394
835.097
874.377
867.638
831.571
740.331
658.02
696.692
658.019
740.331
831.568
867.635
866.316
827.956
741.564
672.98
700.875
672.98
741.564
827.954
866.314
883.539
849.397
808.69
760.223
786.905
760.223
808.691
849.397
883.537
914.755
893.263
928.504
900.34
923.795
900.34
928.505
893.264
914.753
939.541
918.777
850.089
830.272
847.858
830.273
850.091
918.779
939.541
978.579
981.318
627.913
422.773
397.892
422.773
627.915
981.32
978.578
272.938
261.707
321.683
307.026
464.327
307.024
321.682
261.707
272.938
320.319
355.526
419.345
357.397
494.985
357.396
419.343
355.526
320.319
264.937
298.796
374.735
385.674
523.786
385.672
374.734
298.795
264.936
263.86
285.813
368.214
427.237
560.22
427.234
368.212
285.812
263.859
292.304
313.815
401.785
484.667
602.985
484.663
401.782
313.813
292.302
350.934
374.559
462.515
550.248
647.753
550.244
462.511
374.556
350.932
432.801
455.772
535.813
615.441
690.659
615.436
535.808
455.767
432.797
522.77
542.268
608.878
674.1
729.068
674.095
608.872
542.262
522.765
607.021
621.906
673.428
723.136
761.6
723.13
673.42
621.898
607.014
677.814
688.274
725.933
761.931
787.951
761.925
725.925
688.266
677.806
732.906
739.753
766.151
791.399
808.651
791.394
766.143
739.743
732.897
773.238
777.376
795.39
813.084
824.626
813.079
795.381
777.366
773.228
800.936
802.939
815.12
828.996
839.816
828.992
815.112
802.929
800.925
818.244
817.74
825.303
836.156
842.891
836.151
825.294
817.729
818.233
826.935
822.099
822.953
841.357
920.817
841.351
822.944
822.089
826.924
831.422
817.995
801.631
762.987
735.175
762.984
801.623
817.984
831.412
870.802
824.394
757.646
616.593
930.983
616.591
757.64
824.384
870.792
899.146
826.873
695.47
514.551
1057.28
514.549
695.465
826.864
899.135
891.439
815.278
649.451
464.736
903.986
464.734
649.448
815.268
891.428
876.883
803.939
631.328
459.814
837.559
459.811
631.326
803.931
876.873
865.389
797.765
632.648
477.741
811.479
477.737
632.646
797.758
865.38
857.368
796.089
644.984
507.317
799.453
507.313
644.981
796.083
857.36
851.686
797.346
663.124
543.254
793.713
543.25
663.121
797.34
851.679
847.523
800.326
683.971
582.198
792.307
582.194
683.969
800.321
847.517
844.326
804.14
705.522
621.594
794.379
621.591
705.52
804.135
844.321
841.581
807.989
726.354
659.59
799.201
659.587
726.351
807.985
841.576
838.768
811.123
745.472
694.906
806.022
694.904
745.47
811.12
838.764
835.102
811.354
760.374
725.723
812.543
725.721
760.373
811.351
835.098
831.572
809.982
776.454
747.622
814.044
747.621
776.453
809.981
831.569
827.958
779.769
719.744
721.701
758.672
721.701
719.743
779.768
827.955
849.399
781.703
911.718
778.174
826.875
778.173
911.718
781.703
849.398
893.265
811.252
981.84
814.792
856.055
814.792
981.841
811.254
893.265
918.778
893.35
1059.51
1021.89
1041.16
1021.89
1059.51
893.354
918.78
981.318
1122.7
1200.62
1179.69
1147.29
1179.7
1200.62
1122.7
981.321
303.819
321.683
400.612
477.999
592.127
477.997
400.611
321.682
303.819
341.145
419.344
505.971
535.553
615.644
535.55
505.969
419.343
341.145
294.439
374.735
509.738
572.143
639.305
572.14
509.734
374.733
294.438
299.445
368.214
518.865
605.51
665.159
605.506
518.86
368.211
299.444
335.525
401.784
548.922
641.285
692.815
641.281
548.916
401.781
335.524
401.275
462.515
593.371
678.313
720.582
678.308
593.364
462.51
401.272
484.402
535.812
643.336
714.066
746.897
714.061
643.328
535.806
484.397
569.271
608.876
691.616
746.367
770.636
746.362
691.608
608.869
569.265
644.909
673.427
733.782
773.899
791.109
773.895
733.774
673.418
644.901
706.544
725.932
768.051
796.239
808.047
796.234
768.043
725.922
706.535
753.734
766.15
794.4
813.59
821.523
813.585
794.392
766.14
753.725
788.188
795.389
813.532
826.388
831.785
826.384
813.524
795.379
788.177
812.322
815.119
825.958
834.915
839.464
834.911
825.95
815.109
812.31
827.125
825.302
830.892
837.966
842.428
837.962
830.884
825.291
827.114
830.97
822.952
825.822
834.154
851.231
834.15
825.814
822.941
830.96
811.472
801.63
807.778
811.032
806.654
811.028
807.771
801.62
811.463
755.049
757.645
791.711
791.158
982.85
791.154
791.704
757.636
755.04
643.868
695.469
774.263
775.302
1237.14
775.297
774.255
695.461
643.861
560.889
649.451
753.802
756.59
1256.23
756.585
753.797
649.445
560.884
531.106
631.328
741.423
750.382
1221.86
750.376
741.418
631.323
531.102
533.739
632.648
738.023
754.396
1179.14
754.389
738.019
632.643
533.735
553.122
644.984
741.025
763.642
1134.79
763.636
741.021
644.978
553.119
580.77
663.125
748.089
775.024
1091.02
775.018
748.085
663.12
580.767
611.884
683.972
757.652
786.97
1049.87
786.965
757.648
683.968
611.88
643.378
705.524
768.662
798.936
1013.11
798.932
768.658
705.52
643.374
673.067
726.356
780.613
811.124
982.092
811.12
780.609
726.352
673.064
699.534
745.474
792.693
823.97
957.58
823.967
792.69
745.472
699.532
720.397
760.376
812.054
844.452
945.328
844.449
812.051
760.374
720.395
740.334
776.456
825.887
861.581
935.967
861.579
825.885
776.455
740.334
741.567
719.746
1017.27
1063.17
1091.63
1063.17
1017.26
719.745
741.567
808.693
911.721
1763.22
1101.09
1201.67
1101.09
1763.22
911.722
808.695
928.507
981.842
981.845
928.509
850.092
1059.51
684.131
643.484
694.035
643.485
684.133
1059.51
850.095
627.916
1200.62
957.857
959.801
960.42
959.803
957.86
1200.63
627.919
857.111
887.418
902.007
887.42
857.115
858.196
877.387
897.907
877.39
858.201
866.322
877.402
898.639
877.406
866.326
870.086
878.021
899.139
878.025
870.09
870.595
877.818
898.965
877.822
870.599
869.509
876.917
898.254
876.921
869.513
867.777
875.6
897.148
875.604
867.781
865.806
874.041
895.743
874.046
865.81
863.73
872.316
894.091
872.32
863.734
861.668
870.47
892.158
870.474
861.672
859.754
868.815
890.526
868.819
859.758
856.905
865.825
886.904
865.829
856.909
254.507
307.025
477.999
655.862
742.192
655.858
477.996
307.023
254.507
281.347
357.396
535.552
686.019
750.866
686.015
535.549
357.393
281.346
291.709
385.673
572.141
708.021
756.455
708.017
572.136
385.67
291.708
329.881
427.235
605.508
725.034
761.822
725.03
605.501
427.231
329.879
393.25
484.665
641.283
740.938
769.054
740.934
641.275
484.66
393.247
472.102
550.246
678.31
757.136
778.423
757.132
678.302
550.24
472.098
553.963
615.438
714.063
773.539
789.295
773.535
714.055
615.431
553.958
628.877
674.097
746.364
789.406
800.727
789.402
746.356
674.09
628.87
691.629
723.132
773.897
803.92
811.801
803.916
773.889
723.124
691.621
741.042
761.927
796.237
816.483
821.802
816.479
796.229
761.918
741.034
778.409
791.396
813.588
826.766
830.254
826.763
813.579
791.387
778.4
806.114
813.081
826.386
834.589
836.853
834.585
826.378
813.072
806.103
829.225
828.993
834.913
839.73
841.435
839.726
834.906
828.983
829.215
840.125
836.153
837.965
841.635
843.733
841.631
837.958
836.143
840.117
903.271
841.353
834.153
840.325
846.229
840.322
834.146
841.344
903.262
732.44
762.986
811.031
836.321
847.525
836.318
811.024
762.977
732.431
402.724
616.592
791.157
850.705
899.327
850.701
791.151
616.587
402.722
252.334
514.551
775.301
871.672
996.16
871.668
775.295
514.547
252.334
203.68
464.736
756.589
877.103
1042.64
877.1
756.584
464.733
203.68
208.816
459.813
750.381
876.703
1052.41
876.7
750.376
459.81
208.816
236.172
477.741
754.395
875.842
1044.5
875.839
754.389
477.737
236.171
277.976
507.316
763.641
875.28
1028.47
875.276
763.636
507.312
277.976
330.97
543.254
775.023
874.726
1008.96
874.722
775.019
543.25
330.969
390.953
582.198
786.969
874.315
988.703
874.311
786.965
582.194
390.952
453.239
621.595
798.936
874.376
969.6
874.373
798.932
621.592
453.238
513.721
659.59
811.124
875.698
953.208
875.696
811.12
659.588
513.72
569.395
694.907
823.97
879.88
941.39
879.878
823.967
694.905
569.394
616.527
725.725
844.452
891.255
937.563
891.253
844.451
725.723
616.526
658.023
747.624
861.582
912.575
944.107
912.574
861.581
747.623
658.022
672.983
721.704
1063.17
1001.98
991.274
1001.98
1063.17
721.704
672.983
760.227
778.177
1101.09
621.38
665.491
621.38
1101.09
778.177
760.227
900.344
814.795
814.797
900.345
830.277
1021.89
643.486
486.222
513.87
486.222
643.488
1021.89
830.279
422.776
1179.7
959.805
828.427
782.458
828.429
959.808
1179.71
422.777
887.421
808.332
777.48
808.334
887.424
877.391
787.403
760.365
787.405
877.393
877.406
779.638
752.614
779.641
877.409
878.024
778.056
751.081
778.06
878.027
877.821
778.573
752.255
778.577
877.824
876.92
779.669
754.443
779.673
876.923
875.603
780.95
757.044
780.954
875.606
874.044
782.346
759.866
782.35
874.048
872.319
783.792
762.787
783.797
872.322
870.472
785.429
765.919
785.433
870.476
868.817
786.675
768.512
786.679
868.821
865.827
789.622
773.644
789.627
865.83
464.925
464.324
592.123
742.188
802.824
742.185
592.12
464.323
464.925
503.104
494.983
615.64
750.863
802.36
750.859
615.637
494.981
503.102
511.365
523.783
639.301
756.452
797.812
756.449
639.296
523.78
511.362
534.832
560.217
665.154
761.819
793.629
761.816
665.15
560.213
534.828
573.026
602.981
692.81
769.051
792.711
769.047
692.805
602.977
573.022
618.942
647.749
720.575
778.42
795.56
778.415
720.569
647.744
618.937
666.139
690.654
746.891
789.292
801.413
789.287
746.884
690.648
666.134
709.937
729.063
770.631
800.723
809.085
800.718
770.623
729.056
709.932
747.653
761.595
791.106
811.798
817.411
811.793
791.097
761.588
747.647
778.429
787.945
808.043
821.8
825.452
821.795
808.035
787.938
778.423
802.873
808.646
821.52
830.252
832.532
830.248
821.513
808.639
802.866
822.122
824.62
831.782
836.852
838.201
836.848
831.774
824.613
822.113
848.407
839.81
839.462
841.434
842.23
841.43
839.454
839.803
848.4
842.689
842.887
842.426
843.732
844.835
843.729
842.419
842.88
842.683
1282.32
920.814
851.228
846.229
848.389
846.225
851.223
920.806
1282.31
682.879
735.173
806.653
847.524
859.41
847.521
806.646
735.166
682.873
486.99
930.981
982.847
899.327
898.809
899.322
982.84
930.979
486.99
461.94
1057.28
1237.14
996.159
950.741
996.155
1237.13
1057.28
461.941
377.801
903.986
1256.23
1042.64
980.219
1042.64
1256.22
903.985
377.801
398.662
837.56
1221.86
1052.41
991.123
1052.41
1221.85
837.557
398.662
420.916
811.48
1179.14
1044.5
991.771
1044.49
1179.14
811.477
420.916
444.028
799.454
1134.79
1028.47
986.595
1028.47
1134.79
799.451
444.028
474.051
793.714
1091.02
1008.96
977.771
1008.95
1091.02
793.712
474.05
511.021
792.31
1049.88
988.703
966.877
988.702
1049.87
792.307
511.019
551.916
794.382
1013.11
969.599
955.434
969.598
1013.11
794.379
551.915
593.38
799.205
982.096
953.208
945.102
953.207
982.093
799.202
593.38
632.761
806.027
957.584
941.391
938.015
941.39
957.581
806.025
632.76
666.195
812.548
945.332
937.564
937.182
937.564
945.33
812.548
666.193
696.696
814.049
935.971
944.109
944.398
944.107
935.971
814.048
696.695
700.88
758.677
1091.63
991.276
963.839
991.274
1091.63
758.677
700.88
786.91
826.88
1201.67
665.491
726.058
665.492
1201.67
826.882
786.912
923.801
856.06
856.062
923.804
847.864
1041.17
694.039
513.873
485.951
513.879
694.045
1041.17
847.866
397.896
1147.29
960.427
782.462
649.661
782.467
960.43
1147.3
397.898
902.013
777.484
665.477
777.488
902.012
897.913
760.37
659.248
760.374
897.911
898.645
752.618
657.542
752.622
898.643
899.146
751.085
661.26
751.089
899.144
898.972
752.259
667.808
752.263
898.97
898.26
754.447
675.491
754.451
898.259
897.154
757.048
683.567
757.052
897.153
895.748
759.87
691.735
759.874
895.748
894.097
762.791
699.822
762.795
894.096
892.163
765.922
707.939
765.926
892.163
890.531
768.515
714.891
768.519
890.531
886.909
773.647
726.682
773.651
886.909
254.507
307.023
477.994
655.853
742.183
655.851
477.993
307.023
254.506
281.346
357.394
535.548
686.01
750.857
686.008
535.545
357.393
281.346
291.708
385.67
572.137
708.013
756.447
708.01
572.132
385.669
291.707
329.878
427.231
605.502
725.026
761.814
725.023
605.498
427.23
329.877
393.245
484.66
641.276
740.93
769.046
740.926
641.271
484.657
393.244
472.097
550.24
678.303
757.128
778.414
757.121
678.297
550.236
472.095
553.956
615.431
714.056
773.531
789.286
773.523
714.048
615.427
553.954
628.868
674.089
746.357
789.398
800.717
789.389
746.348
674.084
628.866
691.621
723.125
773.889
803.912
811.792
803.903
773.881
723.12
691.617
741.035
761.92
796.23
816.477
821.794
816.468
796.221
761.915
741.031
778.403
791.389
813.58
826.761
830.247
826.753
813.572
791.384
778.399
806.106
813.074
826.378
834.583
836.847
834.577
826.37
813.069
806.102
829.219
828.986
834.906
839.724
841.43
839.719
834.899
828.981
829.214
840.121
836.146
837.96
841.63
843.728
841.625
837.953
836.141
840.114
903.265
841.347
834.148
840.321
846.225
840.317
834.142
841.342
903.259
732.434
762.981
811.025
836.317
847.52
836.314
811.02
762.976
732.431
402.723
616.59
791.152
850.7
899.322
850.697
791.148
616.586
402.722
252.334
514.549
775.296
871.667
996.155
871.664
775.292
514.547
252.334
203.68
464.734
756.586
877.1
1042.64
877.097
756.582
464.732
203.68
208.816
459.811
750.378
876.699
1052.41
876.696
750.375
459.81
208.816
236.172
477.739
754.391
875.839
1044.49
875.836
754.389
477.737
236.172
277.976
507.315
763.639
875.277
1028.47
875.275
763.636
507.313
277.976
330.97
543.253
775.022
874.723
1008.95
874.721
775.019
543.251
330.969
390.953
582.198
786.97
874.313
988.702
874.312
786.966
582.196
390.953
453.24
621.596
798.937
874.376
969.598
874.374
798.934
621.594
453.239
513.723
659.592
811.125
875.7
953.207
875.698
811.124
659.59
513.721
569.396
694.91
823.973
879.882
941.39
879.881
823.971
694.907
569.395
616.528
725.728
844.456
891.257
937.565
891.257
844.455
725.726
616.528
658.024
747.628
861.586
912.578
944.109
912.579
861.586
747.626
658.024
672.986
721.708
1063.18
1001.98
991.276
1001.98
1063.18
721.708
672.985
760.23
778.18
1101.1
621.382
665.493
621.382
1101.1
778.182
760.23
900.348
814.799
814.802
900.35
830.282
1021.9
643.49
486.227
513.881
486.23
643.494
1021.9
830.283
422.778
1179.71
959.812
828.436
782.47
828.437
959.814
1179.71
422.778
887.429
808.342
777.491
808.341
887.426
877.399
787.412
760.377
787.412
877.394
877.415
779.647
752.625
779.648
877.41
878.033
778.066
751.092
778.066
878.028
877.83
778.583
752.265
778.584
877.825
876.928
779.679
754.453
779.68
876.924
875.611
780.96
757.055
780.961
875.607
874.053
782.356
759.876
782.356
874.048
872.327
783.802
762.797
783.803
872.323
870.481
785.439
765.928
785.44
870.476
868.826
786.684
768.521
786.685
868.821
865.835
789.632
773.653
789.633
865.831
303.819
321.682
400.61
477.992
592.117
477.992
400.608
321.682
303.819
341.145
419.343
505.967
535.545
615.634
535.545
505.966
419.342
341.145
294.438
374.733
509.732
572.133
639.294
572.132
509.731
374.732
294.438
299.443
368.21
518.857
605.499
665.148
605.498
518.856
368.21
299.443
335.522
401.779
548.912
641.273
692.803
641.271
548.911
401.778
335.522
401.271
462.508
593.36
678.299
720.567
678.296
593.357
462.506
401.27
484.395
535.803
643.323
714.052
746.882
714.048
643.319
535.802
484.394
569.263
608.866
691.603
746.353
770.622
746.348
691.599
608.865
569.262
644.9
673.416
733.77
773.886
791.096
773.88
733.765
673.414
644.898
706.532
725.92
768.038
796.227
808.034
796.221
768.034
725.917
706.53
753.723
766.139
794.386
813.577
821.512
813.572
794.382
766.135
753.72
788.177
795.377
813.519
826.375
831.773
826.37
813.515
795.374
788.174
812.31
815.106
825.948
834.904
839.453
834.899
825.944
815.103
812.307
827.115
825.29
830.882
837.957
842.419
837.953
830.878
825.287
827.111
830.961
822.942
825.813
834.146
851.223
834.143
825.809
822.939
830.957
811.464
801.622
807.769
811.023
806.647
811.021
807.765
801.619
811.461
755.044
757.638
791.702
791.15
982.84
791.148
791.699
757.635
755.04
643.865
695.464
774.255
775.295
1237.13
775.292
774.253
695.461
643.862
560.888
649.447
753.797
756.585
1256.23
756.581
753.795
649.444
560.885
531.105
631.325
741.419
750.378
1221.86
750.374
741.417
631.322
531.103
533.738
632.645
738.019
754.392
1179.14
754.388
738.017
632.643
533.735
553.121
644.981
741.021
763.639
1134.79
763.636
741.02
644.979
553.118
580.769
663.123
748.086
775.022
1091.02
775.018
748.084
663.12
580.766
611.882
683.971
757.65
786.969
1049.87
786.965
757.648
683.968
611.88
643.376
705.522
768.661
798.936
1013.11
798.933
768.659
705.52
643.374
673.065
726.355
780.613
811.125
982.094
811.123
780.611
726.353
673.064
699.533
745.475
792.694
823.972
957.583
823.971
792.694
745.473
699.532
720.397
760.378
812.057
844.456
945.332
844.454
812.056
760.377
720.396
740.336
776.459
825.892
861.587
935.974
861.586
825.891
776.458
740.335
741.57
719.75
1017.27
1063.18
1091.64
1063.18
1017.27
719.75
741.569
808.698
911.727
1763.23
1101.1
1201.68
1101.1
1763.24
911.728
808.698
928.514
981.849
981.852
928.514
850.099
1059.52
684.139
643.494
694.047
643.495
684.139
1059.52
850.1
627.921
1200.63
957.869
959.816
960.434
959.816
957.87
1200.63
627.921
857.122
887.429
902.015
887.427
857.122
858.208
877.397
897.914
877.396
858.208
866.334
877.413
898.646
877.411
866.333
870.098
878.031
899.147
878.029
870.097
870.606
877.828
898.973
877.826
870.605
869.52
876.926
898.262
876.925
869.52
867.788
875.609
897.156
875.608
867.787
865.816
874.051
895.75
874.049
865.816
863.74
872.325
894.099
872.324
863.739
861.678
870.479
892.165
870.477
861.677
859.764
868.824
890.534
868.822
859.763
856.914
865.833
886.911
865.832
856.913
272.938
261.707
321.682
307.023
464.321
307.023
321.682
261.707
272.938
320.319
355.525
419.342
357.393
494.979
357.393
419.342
355.525
320.319
264.936
298.795
374.732
385.669
523.78
385.669
374.732
298.794
264.936
263.859
285.811
368.21
427.23
560.213
427.229
368.21
285.811
263.858
292.302
313.812
401.779
484.658
602.976
484.657
401.778
313.811
292.301
350.93
374.554
462.507
550.237
647.742
550.235
462.506
374.553
350.929
432.795
455.764
535.803
615.427
690.646
615.426
535.802
455.762
432.794
522.763
542.258
608.866
674.085
729.054
674.083
608.865
542.257
522.762
607.013
621.895
673.415
723.12
761.585
723.119
673.414
621.894
607.01
677.804
688.263
725.919
761.916
787.936
761.915
725.917
688.261
677.801
732.894
739.741
766.138
791.386
808.639
791.384
766.135
739.739
732.892
773.227
777.363
795.375
813.071
824.613
813.07
795.374
777.36
773.225
800.925
802.925
815.105
828.983
839.804
828.982
815.103
802.923
800.921
818.233
817.728
825.288
836.143
842.881
836.141
825.287
817.725
818.229
826.925
822.086
822.94
841.344
920.807
841.342
822.939
822.084
826.921
831.412
817.982
801.62
762.978
735.167
762.977
801.619
817.98
831.408
870.792
824.383
757.637
616.587
930.978
616.587
757.635
824.38
870.788
899.136
826.864
695.462
514.548
1057.28
514.547
695.461
826.86
899.132
891.43
815.269
649.445
464.733
903.985
464.732
649.444
815.266
891.426
876.876
803.932
631.323
459.811
837.559
459.809
631.323
803.929
876.872
865.382
797.758
632.644
477.738
811.479
477.737
632.644
797.756
865.379
857.362
796.084
644.98
507.314
799.453
507.313
644.98
796.082
857.36
851.681
797.342
663.122
543.252
793.715
543.25
663.121
797.34
851.679
847.519
800.324
683.97
582.198
792.31
582.195
683.969
800.322
847.518
844.323
804.138
705.522
621.595
794.382
621.593
705.522
804.137
844.322
841.579
807.988
726.355
659.591
799.204
659.59
726.354
807.987
841.578
838.768
811.124
745.475
694.909
806.028
694.908
745.474
811.123
838.767
835.102
811.356
760.378
725.727
812.551
725.726
760.378
811.356
835.102
831.574
809.987
776.46
747.629
814.051
747.627
776.46
809.986
831.574
827.961
779.774
719.75
721.709
758.68
721.709
719.751
779.774
827.961
849.403
781.71
911.728
778.182
826.884
778.183
911.73
781.711
849.405
893.273
811.261
981.851
814.802
856.064
814.803
981.853
811.263
893.273
918.788
893.363
1059.52
1021.9
1041.17
1021.9
1059.52
893.364
918.789
981.327
1122.71
1200.63
1179.71
1147.3
1179.71
1200.64
1122.72
981.331
278.709
272.938
303.819
254.506
464.924
254.506
303.819
272.938
278.709
315.074
320.319
341.145
281.346
503.102
281.346
341.145
320.319
315.074
257.793
264.936
294.438
291.707
511.361
291.707
294.438
264.936
257.793
264.794
263.859
299.443
329.878
534.828
329.878
299.443
263.858
264.793
294.449
292.302
335.523
393.245
573.021
393.245
335.522
292.301
294.448
350.265
350.93
401.271
472.096
618.935
472.096
401.27
350.929
350.263
429.717
432.795
484.395
553.956
666.133
553.955
484.394
432.794
429.715
519.098
522.763
569.263
628.867
709.93
628.866
569.262
522.762
519.096
604.007
607.012
644.899
691.618
747.646
691.617
644.898
607.01
604.005
675.84
677.803
706.531
741.031
778.422
741.031
706.53
677.801
675.837
731.819
732.894
753.721
778.399
802.866
778.399
753.72
732.892
731.816
772.69
773.227
788.176
806.103
822.114
806.103
788.174
773.225
772.686
800.719
800.924
812.309
829.214
848.401
829.214
812.308
800.921
800.715
818.729
818.233
827.113
840.115
842.683
840.114
827.11
818.229
818.725
830.911
826.924
830.959
903.261
1282.32
903.259
830.956
826.921
830.908
843.277
831.411
811.462
732.432
682.874
732.431
811.461
831.408
843.274
878.138
870.791
755.041
402.722
486.99
402.722
755.041
870.788
878.135
922.222
899.136
643.862
252.334
461.941
252.334
643.863
899.133
922.218
943.761
891.43
560.885
203.68
377.801
203.68
560.886
891.427
943.757
947.377
876.875
531.103
208.816
398.662
208.816
531.104
876.873
947.373
942.209
865.381
533.736
236.172
420.916
236.171
533.736
865.38
942.206
933.349
857.361
553.119
277.976
444.028
277.976
553.12
857.361
933.346
923.105
851.681
580.767
330.969
474.051
330.969
580.768
851.68
923.101
912.568
847.519
611.881
390.953
511.02
390.952
611.882
847.518
912.566
902.28
844.323
643.375
453.24
551.916
453.239
643.376
844.323
902.278
892.447
841.579
673.065
513.722
593.381
513.721
673.066
841.579
892.445
883.105
838.768
699.533
569.396
632.761
569.395
699.534
838.768
883.104
874.382
835.103
720.398
616.529
666.195
616.528
720.398
835.103
874.382
867.641
831.574
740.337
658.025
696.697
658.025
740.337
831.575
867.641
866.32
827.961
741.571
672.986
700.882
672.986
741.571
827.962
866.321
883.545
849.404
808.699
760.232
786.914
760.231
808.699
849.406
883.545
914.761
893.272
928.515
900.35
923.806
900.35
928.515
893.274
914.762
939.548
918.787
850.101
830.283
847.869
830.284
850.1
918.789
939.55
978.587
981.331
627.923
422.78
397.898
422.78
627.923
981.334
978.593
)
;

boundaryField
{
    injectionXMinus
    {
        type            uniformFixedValue;
        uniformValue    uniform 400;
        value           uniform 400;
    }
    injectionXPlus
    {
        type            uniformFixedValue;
        uniformValue    uniform 400;
        value           uniform 400;
    }
    injectionYMinus
    {
        type            uniformFixedValue;
        uniformValue    uniform 400;
        value           uniform 400;
    }
    injectionYPlus
    {
        type            uniformFixedValue;
        uniformValue    uniform 400;
        value           uniform 400;
    }
    inletXMinus
    {
        type            uniformFixedValue;
        uniformValue    uniform 293.15;
        value           uniform 293.15;
    }
    inletXPlus
    {
        type            uniformFixedValue;
        uniformValue    uniform 293.15;
        value           uniform 293.15;
    }
    inletYMinus
    {
        type            uniformFixedValue;
        uniformValue    uniform 293.15;
        value           uniform 293.15;
    }
    inletYPlus
    {
        type            uniformFixedValue;
        uniformValue    uniform 293.15;
        value           uniform 293.15;
    }
    outlet
    {
        type            zeroGradient;
    }
    valve
    {
        type            zeroGradient;
    }
    walls
    {
        type            zeroGradient;
    }
}


// ************************************************************************* //
