/*--------------------------------*- C++ -*----------------------------------*\
  =========                 |
  \\      /  F ield         | OpenFOAM: The Open Source CFD Toolbox
   \\    /   O peration     | Website:  https://openfoam.org
    \\  /    A nd           | Version:  6
     \\/     M anipulation  |
\*---------------------------------------------------------------------------*/
FoamFile
{
    version     2.0;
    format      ascii;
    class       volScalarField;
    location    "0.8";
    object      alpha_air;
}
// * * * * * * * * * * * * * * * * * * * * * * * * * * * * * * * * * * * * * //

dimensions      [0 0 0 0 0 0 0];

internalField   nonuniform List<scalar> 
3029
(
1
1
0.999999
1.00001
0.99993
1.00001
0.999999
1
1
1
1
1
1.00002
0.999922
1.00002
0.999999
1
1
1
1
1
1.00002
0.999884
1.00002
1
1
1
1
1.00001
1.00001
1.00003
0.999799
1.00002
1
1.00001
1
1.00001
1.00001
1.00001
1.00002
0.999633
1.00002
1
1.00001
1.00001
1.00001
1.00002
1.00001
0.999992
0.999322
0.999988
1
1.00001
1.00001
1.00001
1.00002
0.999993
0.9999
0.998756
0.999895
0.999985
1.00001
1.00001
1
1
0.999946
0.999666
0.997755
0.99966
0.999937
0.999991
0.999997
0.999967
0.999951
0.99982
0.999138
0.996043
0.999132
0.999808
0.999937
0.999961
0.999864
0.999805
0.999504
0.998042
0.993205
0.998035
0.999491
0.999788
0.999857
0.999596
0.999432
0.998777
0.995944
0.988701
0.995936
0.998763
0.999413
0.999587
0.998952
0.998569
0.99721
0.992032
0.981578
0.992024
0.997195
0.998548
0.998941
0.997534
0.996694
0.994072
0.985881
0.972055
0.985872
0.994055
0.996671
0.997521
0.99473
0.993263
0.98843
0.972487
0.951329
0.972478
0.988413
0.993239
0.994716
0.989759
0.986157
0.976037
0.966816
0.961538
0.966807
0.976018
0.986131
0.989743
0.981557
0.978815
0.974874
0.874892
0.626379
0.874887
0.974857
0.978788
0.981538
0.972967
0.96703
0.84787
0.462103
0.270697
0.462102
0.847858
0.967004
0.972946
0.963226
0.933757
0.673708
0.251449
0.183654
0.25145
0.673701
0.933733
0.963204
0.949003
0.894343
0.568305
0.180589
0.155043
0.18059
0.5683
0.89432
0.948979
0.929831
0.857668
0.512427
0.157062
0.141631
0.157063
0.512424
0.857647
0.929807
0.906405
0.823856
0.48017
0.148468
0.131892
0.148469
0.480167
0.823836
0.906381
0.879341
0.79094
0.457206
0.144301
0.123326
0.144303
0.457203
0.790921
0.879317
0.849047
0.757445
0.437142
0.141141
0.115427
0.141143
0.43714
0.757427
0.849024
0.815863
0.722658
0.417427
0.137895
0.108056
0.137896
0.417425
0.722641
0.81584
0.780156
0.686374
0.397079
0.134217
0.101163
0.134218
0.397077
0.686358
0.780134
0.742383
0.64866
0.375767
0.130028
0.0947395
0.130029
0.375765
0.648646
0.742362
0.7031
0.609742
0.353459
0.125407
0.0888336
0.125408
0.353457
0.609729
0.70308
0.662957
0.570004
0.330479
0.120717
0.0836864
0.120717
0.330476
0.569992
0.662939
0.62266
0.530111
0.307572
0.116734
0.0798753
0.116735
0.30757
0.530101
0.622643
0.582849
0.491479
0.287807
0.116056
0.0794945
0.116057
0.287805
0.49147
0.582832
0.544306
0.457162
0.273206
0.121557
0.0858624
0.121557
0.273204
0.457154
0.544291
0.506724
0.431774
0.266297
0.12094
0.0831772
0.12094
0.266295
0.431767
0.506709
0.466371
0.417303
0.280515
0.123413
0.0709538
0.123413
0.280512
0.417296
0.466357
0.373283
0.360697
0.29179
0.151617
0.0665762
0.151616
0.291785
0.360689
0.373272
1
1
1.00001
1
0.999785
1
1.00001
1
1
1
1.00001
1.00001
1
0.999765
1
1.00001
1
1
1
1.00001
1.00001
1.00001
0.999695
1
1.00001
1.00001
1
1.00001
1.00001
1.00001
0.999999
0.999531
0.999995
1.00001
1.00001
1.00001
1.00001
1.00002
1.00001
0.999965
0.99919
0.99996
1
1.00001
1.00001
1.00002
1.00002
0.999995
0.999855
0.998528
0.999849
0.999987
1.00001
1.00001
1.00002
1.00002
0.999949
0.999571
0.997332
0.999564
0.999938
1
1.00001
1
0.999984
0.999822
0.998935
0.995294
0.998927
0.99981
0.999968
0.999989
0.999951
0.999882
0.999512
0.997656
0.991997
0.997647
0.999498
0.999863
0.999934
0.999804
0.999615
0.998811
0.995283
0.986894
0.995274
0.998795
0.999594
0.999785
0.999431
0.998986
0.997345
0.991187
0.979329
0.991177
0.997328
0.998962
0.999409
0.998568
0.997623
0.994514
0.984503
0.968453
0.984492
0.994494
0.997597
0.998544
0.996693
0.99489
0.989401
0.974322
0.953985
0.974311
0.989381
0.994862
0.996667
0.993262
0.989951
0.981067
0.959128
0.93251
0.959117
0.981045
0.989921
0.993234
0.986155
0.981481
0.966741
0.938309
0.918468
0.938299
0.96672
0.98145
0.986125
0.978813
0.96884
0.952508
0.920605
0.848301
0.920596
0.952487
0.968809
0.978781
0.967027
0.954712
0.914736
0.73894
0.505602
0.738935
0.914717
0.95468
0.966995
0.933754
0.934918
0.842886
0.536845
0.304511
0.536844
0.842871
0.934887
0.933723
0.89434
0.908465
0.777445
0.429443
0.234706
0.429442
0.777433
0.908436
0.894309
0.857665
0.877751
0.726811
0.377756
0.210567
0.377756
0.7268
0.877723
0.857636
0.823853
0.84435
0.685674
0.349936
0.200505
0.349936
0.685665
0.844323
0.823825
0.790937
0.808836
0.648748
0.330912
0.194257
0.330913
0.648739
0.808811
0.79091
0.757443
0.771432
0.613166
0.31463
0.188563
0.314631
0.613158
0.771408
0.757417
0.722656
0.732322
0.577699
0.299011
0.182613
0.299012
0.577691
0.7323
0.722632
0.686373
0.691732
0.541968
0.283448
0.176353
0.283449
0.541961
0.691712
0.68635
0.64866
0.649899
0.505927
0.267969
0.17005
0.26797
0.505921
0.649881
0.648639
0.609742
0.607003
0.469597
0.252984
0.164334
0.252985
0.469591
0.606987
0.609723
0.570004
0.563219
0.433261
0.239544
0.16054
0.239544
0.433256
0.563204
0.569987
0.530111
0.518135
0.396073
0.228688
0.16032
0.228688
0.396069
0.518123
0.530096
0.49148
0.473897
0.36493
0.227489
0.170607
0.227489
0.364926
0.473887
0.491466
0.457163
0.426136
0.307958
0.212425
0.173116
0.212425
0.307956
0.426128
0.457151
0.431775
0.398304
0.285127
0.20237
0.168512
0.20237
0.285126
0.398297
0.431764
0.417304
0.400023
0.294675
0.171798
0.127981
0.171798
0.294673
0.400016
0.417293
0.360698
0.365182
0.308453
0.165535
0.0790514
0.165533
0.308449
0.365174
0.360689
0.999999
1.00001
0.999959
1.00018
0.999897
1.00017
0.999956
1.00001
0.999999
1
1.00001
0.99996
1.00017
0.999675
1.00016
0.999956
1.00001
0.999999
1
1.00001
0.99996
1.00012
0.999109
1.00011
0.999955
1.00001
1
1
1.00001
0.999958
0.999954
0.998003
0.999948
0.999951
1.00001
1
1.00001
1.00001
0.999938
0.999539
0.996101
0.999532
0.99993
1
1
1
0.999993
0.999857
0.998659
0.99308
0.998652
0.999847
0.999982
0.999996
0.999991
0.999946
0.999623
0.997006
0.988551
0.996998
0.999612
0.999933
0.999979
0.999944
0.999819
0.999064
0.994157
0.982054
0.994148
0.999051
0.999803
0.99993
0.999816
0.999509
0.997887
0.989561
0.973066
0.989552
0.997872
0.999491
0.9998
0.9995
0.998807
0.995632
0.982547
0.961015
0.982537
0.995616
0.998787
0.999481
0.998773
0.997341
0.991648
0.972348
0.945324
0.972339
0.99163
0.997319
0.998752
0.997206
0.994509
0.985086
0.958189
0.925494
0.958179
0.985068
0.994485
0.997182
0.994067
0.989396
0.974951
0.939378
0.901267
0.939369
0.974932
0.98937
0.994041
0.988425
0.981062
0.960341
0.915881
0.873337
0.915873
0.960321
0.981034
0.988398
0.976031
0.966736
0.940411
0.887014
0.841038
0.887006
0.940392
0.966708
0.976002
0.974867
0.952502
0.916079
0.861579
0.827976
0.861572
0.91606
0.952474
0.974838
0.847863
0.914729
0.889905
0.826638
0.751068
0.826632
0.889886
0.914702
0.847838
0.673702
0.84288
0.859404
0.764854
0.631503
0.764849
0.859387
0.842854
0.673682
0.5683
0.777439
0.824843
0.705571
0.551689
0.705567
0.824826
0.777416
0.568283
0.512423
0.726806
0.787812
0.656592
0.503027
0.656589
0.787796
0.726784
0.512408
0.480167
0.68567
0.749087
0.614614
0.469213
0.614612
0.749073
0.685649
0.480152
0.457203
0.648745
0.709022
0.576014
0.441206
0.576012
0.709009
0.648725
0.457189
0.43714
0.613164
0.667884
0.538917
0.415185
0.538916
0.667872
0.613145
0.437127
0.417426
0.577697
0.625959
0.502436
0.389683
0.502435
0.625949
0.57768
0.417413
0.397078
0.541967
0.583503
0.466384
0.364342
0.466383
0.583493
0.541951
0.397066
0.375767
0.505927
0.540649
0.43079
0.33929
0.430789
0.54064
0.505913
0.375755
0.35346
0.469597
0.497257
0.395641
0.314817
0.39564
0.49725
0.469584
0.353449
0.33048
0.433262
0.452862
0.360768
0.291312
0.360767
0.452856
0.43325
0.33047
0.307574
0.396075
0.404855
0.324888
0.268509
0.324888
0.40485
0.396065
0.307565
0.287809
0.364932
0.354713
0.287508
0.24709
0.287508
0.35471
0.364923
0.287801
0.273209
0.30796
0.23009
0.199229
0.183255
0.19923
0.23009
0.307955
0.273201
0.2663
0.285128
0.285125
0.266293
0.280517
0.294677
0.297901
0.209894
0.145939
0.209894
0.297898
0.294672
0.28051
0.291791
0.308455
0.309
0.202698
0.114119
0.202697
0.308995
0.308448
0.291785
0.307449
0.203254
0.107626
0.203253
0.307443
0.300229
0.20069
0.105522
0.200689
0.300224
0.291067
0.195853
0.103581
0.195852
0.291062
0.28133
0.190077
0.101428
0.190075
0.281326
0.271553
0.184022
0.0991344
0.18402
0.271548
0.261914
0.177951
0.0967795
0.17795
0.26191
0.252479
0.171961
0.0944021
0.17196
0.252476
0.243259
0.166079
0.0920162
0.166078
0.243256
0.234311
0.160349
0.0896453
0.160348
0.234307
0.225373
0.154603
0.0872121
0.154602
0.225369
0.217741
0.149687
0.0851131
0.149687
0.217738
0.204863
0.1413
0.0813343
0.141299
0.20486
1.00001
1
1.00017
0.996953
0.981039
0.996948
1.00017
0.999999
1.00001
1.00002
1
1.00016
0.996442
0.979428
0.996436
1.00016
0.999999
1.00001
1.00002
1
1.00011
0.995216
0.975952
0.99521
1.00011
0.999997
1.00002
1.00002
0.999995
0.99995
0.993032
0.970428
0.993025
0.999942
0.999988
1.00002
1.00002
0.99996
0.999535
0.989577
0.962689
0.989569
0.999526
0.999951
1.00001
0.999987
0.999849
0.998655
0.984461
0.952525
0.984453
0.998644
0.999838
0.999978
0.999894
0.999564
0.997001
0.977231
0.939691
0.977224
0.99699
0.99955
0.999883
0.999659
0.998927
0.994151
0.967383
0.923905
0.967376
0.994139
0.998912
0.999646
0.999131
0.997647
0.989556
0.954385
0.904879
0.954377
0.989542
0.99763
0.999116
0.998034
0.995274
0.982541
0.937708
0.882348
0.937701
0.982526
0.995255
0.998017
0.995935
0.991177
0.972342
0.916897
0.856124
0.916891
0.972327
0.991157
0.995916
0.992022
0.984492
0.958182
0.891658
0.826183
0.891652
0.958167
0.984471
0.992002
0.985871
0.974311
0.939372
0.862018
0.792799
0.862013
0.939357
0.974289
0.985848
0.972476
0.959117
0.915875
0.828676
0.756966
0.828672
0.91586
0.959094
0.972453
0.966804
0.938298
0.887008
0.7932
0.720006
0.793196
0.886994
0.938275
0.96678
0.874881
0.920593
0.861573
0.758421
0.687107
0.758418
0.861558
0.92057
0.874859
0.462098
0.73893
0.826631
0.73156
0.664599
0.731556
0.826617
0.738911
0.462085
0.251447
0.536839
0.764848
0.707254
0.638518
0.70725
0.764833
0.536824
0.25144
0.180588
0.429438
0.705565
0.678439
0.606809
0.678436
0.705551
0.429426
0.180582
0.157061
0.377752
0.656587
0.645206
0.573003
0.645203
0.656574
0.377741
0.157056
0.148468
0.349933
0.61461
0.609297
0.538736
0.609295
0.614598
0.349922
0.148462
0.144301
0.33091
0.576011
0.572062
0.504532
0.57206
0.575999
0.3309
0.144296
0.141141
0.314628
0.538915
0.534301
0.470602
0.5343
0.538904
0.314619
0.141136
0.137895
0.29901
0.502435
0.496568
0.437118
0.496567
0.502425
0.299001
0.13789
0.134217
0.283448
0.466383
0.459125
0.404182
0.459124
0.466374
0.28344
0.134213
0.130028
0.26797
0.430789
0.422033
0.371806
0.422033
0.430782
0.267962
0.130023
0.125407
0.252986
0.395641
0.385076
0.339825
0.385076
0.395634
0.252979
0.125403
0.120718
0.239546
0.360768
0.347517
0.307687
0.347518
0.360763
0.239539
0.120713
0.116735
0.22869
0.324889
0.307356
0.273817
0.307356
0.324884
0.228684
0.116731
0.116058
0.227492
0.287509
0.259719
0.234265
0.25972
0.287506
0.227487
0.116054
0.121559
0.212427
0.199229
0.173612
0.161504
0.173613
0.199229
0.212424
0.121555
0.120942
0.202371
0.20237
0.120939
0.123416
0.1718
0.209895
0.210573
0.161316
0.210572
0.209893
0.171797
0.123412
0.15162
0.165537
0.2027
0.207439
0.152934
0.207438
0.202696
0.165533
0.151615
0.203256
0.201613
0.146686
0.201611
0.203252
0.200692
0.195222
0.14179
0.195221
0.200688
0.195855
0.188612
0.137252
0.188611
0.195851
0.190078
0.181984
0.132841
0.181983
0.190075
0.184023
0.175452
0.128514
0.175451
0.18402
0.177952
0.169065
0.124269
0.169064
0.177949
0.171962
0.162842
0.120112
0.162841
0.171959
0.16608
0.156782
0.116041
0.156781
0.166078
0.16035
0.150917
0.112077
0.150916
0.160348
0.154604
0.145079
0.108108
0.145079
0.154602
0.149689
0.140089
0.104698
0.140089
0.149686
0.141301
0.131706
0.0989065
0.131705
0.141299
0.999928
0.99978
0.999891
0.981033
0.92733
0.981028
0.999885
0.999777
0.999928
0.999919
0.999759
0.999668
0.979423
0.924286
0.979417
0.999662
0.999754
0.999916
0.999879
0.999688
0.999101
0.975947
0.918152
0.975941
0.999094
0.999682
0.999875
0.999793
0.999523
0.997994
0.970422
0.909056
0.970417
0.997986
0.999516
0.999787
0.999626
0.99918
0.996091
0.962683
0.8972
0.962678
0.996083
0.999171
0.999619
0.999313
0.998517
0.99307
0.95252
0.882699
0.952515
0.993061
0.998507
0.999305
0.998746
0.997319
0.98854
0.939685
0.865569
0.93968
0.98853
0.997308
0.998736
0.997744
0.995281
0.982043
0.923899
0.845739
0.923895
0.982033
0.995268
0.997733
0.996031
0.991983
0.973055
0.904874
0.823095
0.90487
0.973044
0.991969
0.996018
0.993192
0.986879
0.961004
0.882344
0.797521
0.88234
0.960993
0.986864
0.993178
0.988688
0.979313
0.945313
0.85612
0.768961
0.856117
0.945302
0.979297
0.988672
0.981563
0.968438
0.925483
0.82618
0.737482
0.826177
0.925472
0.968421
0.981546
0.97204
0.95397
0.901257
0.792796
0.703379
0.792794
0.901246
0.953952
0.972022
0.951315
0.932495
0.873327
0.756963
0.667354
0.756962
0.873317
0.932477
0.951296
0.961523
0.918453
0.841029
0.720003
0.63075
0.720002
0.841019
0.918435
0.961503
0.62637
0.848288
0.827966
0.687104
0.595169
0.687104
0.827955
0.848269
0.626355
0.270694
0.505596
0.751059
0.664596
0.565202
0.664595
0.751047
0.505583
0.270687
0.183653
0.304508
0.631496
0.638515
0.540772
0.638514
0.631485
0.304499
0.183648
0.155042
0.234704
0.551683
0.606806
0.516835
0.606804
0.551672
0.234696
0.155037
0.14163
0.210566
0.503022
0.573001
0.491449
0.572999
0.503011
0.210559
0.141625
0.131892
0.200503
0.469209
0.538734
0.464735
0.538732
0.469199
0.200497
0.131887
0.123326
0.194256
0.441202
0.50453
0.437257
0.504529
0.441193
0.194249
0.123321
0.115426
0.188562
0.415182
0.4706
0.409442
0.470599
0.415173
0.188555
0.115422
0.108056
0.182612
0.389681
0.437117
0.381707
0.437116
0.389674
0.182606
0.108052
0.101163
0.176352
0.364341
0.40418
0.354241
0.40418
0.364334
0.176347
0.101159
0.0947395
0.17005
0.339289
0.371805
0.32709
0.371805
0.339284
0.170045
0.0947355
0.0888336
0.164334
0.314816
0.339824
0.300146
0.339824
0.314811
0.164329
0.0888299
0.0836865
0.160541
0.291312
0.307686
0.272998
0.307686
0.291307
0.160536
0.083683
0.0798756
0.160321
0.268509
0.273817
0.244404
0.273817
0.268506
0.160317
0.0798722
0.079495
0.170608
0.24709
0.234264
0.211428
0.234265
0.247089
0.170605
0.0794917
0.085863
0.173116
0.183255
0.161504
0.150604
0.161505
0.183256
0.173115
0.08586
0.0831778
0.168512
0.168511
0.083175
0.0709545
0.127982
0.14594
0.161317
0.149944
0.161316
0.145939
0.12798
0.0709517
0.066577
0.0790522
0.11412
0.152934
0.148953
0.152933
0.114118
0.0790498
0.0665744
0.107627
0.146687
0.145214
0.146685
0.107625
0.105523
0.141791
0.14058
0.14179
0.105521
0.103582
0.137252
0.135729
0.137251
0.10358
0.101429
0.132842
0.130901
0.132841
0.101427
0.0991352
0.128514
0.126174
0.128513
0.0991334
0.0967803
0.12427
0.121569
0.124269
0.0967786
0.0944029
0.120113
0.117096
0.120112
0.0944012
0.092017
0.116041
0.112749
0.11604
0.0920153
0.089646
0.112078
0.108548
0.112077
0.0896444
0.0872129
0.108109
0.104379
0.108108
0.0872113
0.0851138
0.104699
0.100799
0.104698
0.0851122
0.081335
0.098907
0.0948428
0.0989057
0.0813334
1.00001
0.999998
1.00017
0.996942
0.981026
0.996939
1.00017
0.999997
1.00001
1.00001
0.999998
1.00016
0.996429
0.979415
0.996427
1.00015
0.999996
1.00001
1.00002
0.999997
1.00011
0.995203
0.975938
0.9952
1.0001
0.999994
1.00002
1.00002
0.999988
0.99994
0.993018
0.970414
0.993015
0.999936
0.999984
1.00002
1.00001
0.999952
0.999523
0.989562
0.962675
0.989559
0.999519
0.999947
1.00001
0.999981
0.999839
0.998642
0.984446
0.952512
0.984442
0.998637
0.999833
0.999976
0.999886
0.999552
0.996988
0.977216
0.939678
0.977213
0.996982
0.999545
0.99988
0.99965
0.998914
0.994137
0.967369
0.923893
0.967365
0.99413
0.998906
0.999642
0.99912
0.997634
0.989541
0.95437
0.904868
0.954367
0.989533
0.997624
0.999112
0.998023
0.995259
0.982525
0.937695
0.882339
0.937692
0.982518
0.995249
0.998013
0.995922
0.991162
0.972327
0.916885
0.856115
0.916882
0.972319
0.99115
0.995912
0.99201
0.984477
0.958168
0.891646
0.826176
0.891644
0.958159
0.984464
0.991998
0.985858
0.974296
0.939358
0.862008
0.792793
0.862006
0.939349
0.974282
0.985844
0.972464
0.959102
0.915862
0.828668
0.756961
0.828666
0.915853
0.959088
0.972449
0.966792
0.938285
0.886996
0.793192
0.720002
0.793191
0.886988
0.93827
0.966777
0.874874
0.920582
0.861562
0.758415
0.687103
0.758414
0.861554
0.920567
0.874858
0.462096
0.738924
0.826623
0.731553
0.664595
0.731553
0.826613
0.73891
0.462086
0.251448
0.536836
0.764841
0.707247
0.638514
0.707247
0.764831
0.536824
0.251441
0.180589
0.429437
0.705559
0.678433
0.606804
0.678432
0.705549
0.429426
0.180583
0.157062
0.377752
0.656582
0.6452
0.572999
0.6452
0.656573
0.377742
0.157057
0.148469
0.349932
0.614606
0.609293
0.538733
0.609292
0.614597
0.349923
0.148463
0.144302
0.33091
0.576007
0.572058
0.504529
0.572058
0.575999
0.330901
0.144296
0.141142
0.314628
0.538911
0.534298
0.4706
0.534298
0.538904
0.314619
0.141136
0.137895
0.299009
0.502432
0.496566
0.437116
0.496566
0.502425
0.299001
0.13789
0.134217
0.283447
0.46638
0.459123
0.40418
0.459123
0.466374
0.283439
0.134212
0.130028
0.267968
0.430787
0.422032
0.371805
0.422032
0.430781
0.267961
0.130023
0.125407
0.252984
0.395639
0.385076
0.339824
0.385076
0.395634
0.252977
0.125402
0.120717
0.239543
0.360766
0.347517
0.307686
0.347518
0.360763
0.239538
0.120712
0.116734
0.228687
0.324887
0.307356
0.273817
0.307356
0.324884
0.228683
0.11673
0.116056
0.227489
0.287508
0.25972
0.234265
0.259721
0.287507
0.227485
0.116052
0.121557
0.212425
0.199229
0.173612
0.161505
0.173613
0.19923
0.212423
0.121553
0.12094
0.20237
0.202369
0.120937
0.123412
0.171798
0.209894
0.210573
0.161318
0.210572
0.209893
0.171796
0.123409
0.151616
0.165533
0.202697
0.207439
0.152934
0.207438
0.202695
0.16553
0.151613
0.203253
0.201612
0.146687
0.201611
0.203251
0.200689
0.195221
0.141791
0.195221
0.200687
0.195852
0.188611
0.137252
0.188611
0.19585
0.190076
0.181983
0.132842
0.181982
0.190073
0.184021
0.175452
0.128514
0.17545
0.184019
0.17795
0.169064
0.12427
0.169063
0.177948
0.17196
0.162841
0.120113
0.16284
0.171958
0.166079
0.156781
0.116041
0.15678
0.166076
0.160349
0.150916
0.112077
0.150915
0.160346
0.154603
0.145079
0.108108
0.145077
0.154601
0.149687
0.140089
0.104698
0.140087
0.149685
0.1413
0.131706
0.0989063
0.131703
0.141297
0.999999
1.00001
0.999953
1.00017
0.999883
1.00017
0.999952
1
0.999999
0.999999
1.00001
0.999953
1.00015
0.999659
1.00015
0.999952
1
0.999999
1
1.00001
0.999951
1.0001
0.999091
1.0001
0.99995
1
0.999999
1
1
0.999947
0.999938
0.997983
0.999936
0.999944
1
0.999999
1
0.999998
0.999924
0.99952
0.99608
0.999518
0.999921
0.999995
0.999998
0.999995
0.99998
0.99984
0.998638
0.993058
0.998636
0.999837
0.999976
0.999993
0.999979
0.99993
0.999604
0.996984
0.988527
0.996981
0.999601
0.999925
0.999975
0.999929
0.9998
0.999043
0.994132
0.98203
0.99413
0.999038
0.999795
0.999924
0.999799
0.999487
0.997863
0.989536
0.973042
0.989533
0.997858
0.999481
0.999794
0.999481
0.998783
0.995606
0.98252
0.96099
0.982517
0.995601
0.998776
0.999475
0.998752
0.997315
0.991621
0.972321
0.9453
0.972318
0.991615
0.997307
0.998745
0.997183
0.994482
0.985058
0.958162
0.92547
0.958159
0.985052
0.994473
0.997174
0.994042
0.989368
0.974922
0.939351
0.901244
0.939349
0.974916
0.989358
0.994033
0.9884
0.981033
0.960312
0.915855
0.873315
0.915853
0.960305
0.981022
0.98839
0.976006
0.966707
0.940383
0.88699
0.841017
0.886988
0.940376
0.966696
0.975995
0.974844
0.952475
0.916052
0.861555
0.827954
0.861553
0.916045
0.952463
0.974831
0.847847
0.914706
0.889879
0.826614
0.751047
0.826613
0.889872
0.914693
0.847834
0.673692
0.842861
0.85938
0.764831
0.631485
0.764831
0.859374
0.842848
0.673681
0.568293
0.777423
0.82482
0.70555
0.551673
0.70555
0.824814
0.777411
0.568282
0.512418
0.726792
0.787791
0.656573
0.503012
0.656574
0.787785
0.72678
0.512407
0.480161
0.685657
0.749068
0.614598
0.469201
0.614598
0.749063
0.685646
0.480152
0.457198
0.648733
0.709005
0.575999
0.441195
0.576
0.709
0.648722
0.457188
0.437135
0.613153
0.667869
0.538904
0.415175
0.538905
0.667864
0.613142
0.437126
0.41742
0.577687
0.625946
0.502425
0.389675
0.502427
0.625942
0.577677
0.417412
0.397073
0.541958
0.583491
0.466374
0.364336
0.466376
0.583487
0.541949
0.397064
0.375761
0.505918
0.540639
0.430782
0.339286
0.430784
0.540636
0.50591
0.375753
0.353454
0.469589
0.497249
0.395635
0.314813
0.395637
0.497246
0.469582
0.353447
0.330474
0.433255
0.452856
0.360763
0.291309
0.360765
0.452853
0.433248
0.330467
0.307568
0.396069
0.40485
0.324885
0.268508
0.324887
0.404849
0.396063
0.307562
0.287803
0.364926
0.35471
0.287507
0.24709
0.287508
0.354709
0.364922
0.287798
0.273203
0.307957
0.23009
0.199229
0.183256
0.19923
0.230091
0.307954
0.273198
0.266294
0.285126
0.285124
0.26629
0.280512
0.294674
0.297899
0.209894
0.14594
0.209895
0.297898
0.294671
0.280507
0.291787
0.308451
0.308997
0.202697
0.11412
0.202697
0.308995
0.308447
0.291783
0.307445
0.203253
0.107626
0.203253
0.307443
0.300226
0.200689
0.105523
0.200689
0.300224
0.291064
0.195852
0.103581
0.195852
0.291062
0.281328
0.190076
0.101428
0.190075
0.281325
0.27155
0.18402
0.0991345
0.18402
0.271548
0.261912
0.17795
0.0967797
0.17795
0.26191
0.252477
0.17196
0.0944023
0.17196
0.252475
0.243257
0.166078
0.0920163
0.166078
0.243255
0.234309
0.160348
0.0896454
0.160348
0.234307
0.225371
0.154603
0.0872122
0.154602
0.225369
0.217739
0.149687
0.0851131
0.149686
0.217737
0.204861
0.141299
0.0813343
0.141299
0.204859
1
1
1
0.999997
0.999775
0.999996
1
1
1
1
1
1.00001
0.999997
0.999753
0.999996
1
1
1
1
1
1.00001
0.999995
0.99968
0.999994
1
1
1
1
1.00001
1
0.999985
0.999514
0.999984
1
1.00001
1
1.00001
1.00001
0.999997
0.999948
0.99917
0.999947
0.999995
1.00001
1
1.00001
1.00001
0.999978
0.999834
0.998505
0.999833
0.999976
1.00001
1
1
0.999999
0.999928
0.999547
0.997306
0.999545
0.999925
0.999995
1
0.999985
0.999961
0.999798
0.998908
0.995266
0.998906
0.999795
0.999957
0.999981
0.99993
0.999855
0.999484
0.997626
0.991966
0.997624
0.999481
0.99985
0.999926
0.99978
0.999586
0.99878
0.995251
0.986862
0.995248
0.998776
0.99958
0.999775
0.999404
0.998953
0.997312
0.991152
0.979295
0.99115
0.997307
0.998947
0.999398
0.998539
0.997588
0.994478
0.984466
0.968419
0.984464
0.994473
0.997581
0.998532
0.996662
0.994853
0.989363
0.974285
0.95395
0.974282
0.989358
0.994845
0.996654
0.993229
0.989912
0.981028
0.95909
0.932476
0.959088
0.981022
0.989903
0.993221
0.986121
0.98144
0.966702
0.938272
0.918434
0.93827
0.966697
0.981432
0.986113
0.978779
0.9688
0.952469
0.920568
0.848269
0.920567
0.952464
0.968791
0.978769
0.966994
0.954672
0.914698
0.738911
0.505584
0.738911
0.914694
0.954663
0.966984
0.933724
0.93488
0.842852
0.536825
0.304501
0.536826
0.842849
0.934871
0.933713
0.894311
0.908429
0.777414
0.429427
0.234698
0.429428
0.777412
0.908421
0.8943
0.857639
0.877717
0.726782
0.377742
0.21056
0.377744
0.726781
0.877709
0.857628
0.823829
0.844318
0.685648
0.349924
0.200498
0.349925
0.685647
0.84431
0.823818
0.790914
0.808807
0.648724
0.330902
0.194251
0.330903
0.648724
0.808799
0.790904
0.757421
0.771405
0.613145
0.31462
0.188557
0.314622
0.613144
0.771398
0.757411
0.722636
0.732298
0.577679
0.299002
0.182608
0.299004
0.577679
0.732291
0.722627
0.686354
0.69171
0.541951
0.283441
0.176348
0.283442
0.541951
0.691704
0.686345
0.648643
0.64988
0.505913
0.267963
0.170047
0.267964
0.505913
0.649874
0.648634
0.609728
0.606987
0.469584
0.25298
0.164331
0.252981
0.469584
0.606982
0.609719
0.569991
0.563205
0.433251
0.23954
0.160538
0.239541
0.433251
0.563201
0.569984
0.5301
0.518124
0.396066
0.228685
0.160319
0.228686
0.396066
0.51812
0.530093
0.491471
0.473889
0.364924
0.227488
0.170607
0.227489
0.364925
0.473886
0.491465
0.457155
0.42613
0.307956
0.212425
0.173116
0.212426
0.307956
0.426127
0.45715
0.431768
0.398299
0.285125
0.20237
0.168513
0.202371
0.285126
0.398297
0.431763
0.417298
0.400018
0.294673
0.171798
0.127982
0.171799
0.294673
0.400016
0.417293
0.360692
0.365178
0.30845
0.165533
0.0790509
0.165533
0.308449
0.365175
0.360689
1
1
0.999999
1.00001
0.999927
1.00001
0.999999
1
1
1
1
0.999999
1.00001
0.999916
1.00001
0.999999
1
1
1
1
0.999999
1.00002
0.999874
1.00002
0.999999
1
1
1
1
1
1.00002
0.999786
1.00002
0.999999
1
1
1
1.00001
0.999999
1.00001
0.999618
1.00001
0.999998
1
1
1.00001
1.00001
0.999994
0.999976
0.999304
0.999976
0.999993
1
1
1
1
0.999977
0.999881
0.998735
0.99988
0.999975
1
0.999999
0.999993
0.999984
0.999926
0.999643
0.997731
0.999642
0.999924
0.999981
0.999987
0.999956
0.999929
0.999796
0.999113
0.996017
0.999112
0.999794
0.999926
0.99995
0.999851
0.999779
0.999477
0.998014
0.993177
0.998013
0.999475
0.999775
0.999844
0.999581
0.999403
0.998748
0.995913
0.988671
0.995912
0.998745
0.999398
0.999573
0.998935
0.998538
0.997178
0.991999
0.981545
0.991998
0.997175
0.998532
0.998927
0.997514
0.99666
0.994037
0.985846
0.972021
0.985844
0.994033
0.996655
0.997505
0.994709
0.993228
0.988394
0.972451
0.951295
0.972449
0.98839
0.993221
0.994699
0.989736
0.986119
0.975999
0.966778
0.961502
0.966777
0.975995
0.986113
0.989726
0.981531
0.978776
0.974834
0.874858
0.626356
0.874858
0.974831
0.978769
0.981521
0.972939
0.96699
0.847836
0.462087
0.270689
0.462087
0.847834
0.966984
0.972929
0.963198
0.933719
0.673682
0.251442
0.183649
0.251442
0.673682
0.933713
0.963187
0.948974
0.894306
0.568283
0.180584
0.155039
0.180585
0.568284
0.894301
0.948963
0.929802
0.857633
0.512408
0.157058
0.141627
0.157058
0.512409
0.857628
0.929792
0.906377
0.823823
0.480152
0.148464
0.131889
0.148465
0.480153
0.823818
0.906367
0.879313
0.790908
0.457189
0.144297
0.123323
0.144298
0.45719
0.790904
0.879303
0.849021
0.757416
0.437127
0.141137
0.115423
0.141138
0.437128
0.757412
0.849012
0.815837
0.722631
0.417413
0.137891
0.108053
0.137892
0.417414
0.722628
0.815829
0.780133
0.686349
0.397066
0.134213
0.10116
0.134214
0.397067
0.686346
0.780125
0.742361
0.648639
0.375755
0.130024
0.0947369
0.130025
0.375756
0.648636
0.742354
0.70308
0.609723
0.353449
0.125403
0.0888311
0.125404
0.35345
0.609721
0.703073
0.662939
0.569988
0.33047
0.120714
0.0836842
0.120715
0.330471
0.569986
0.662933
0.622644
0.530097
0.307564
0.116732
0.0798734
0.116732
0.307565
0.530095
0.622638
0.582834
0.491468
0.287801
0.116054
0.0794929
0.116055
0.287801
0.491466
0.582829
0.544293
0.457152
0.273201
0.121555
0.0858613
0.121556
0.273202
0.457151
0.544288
0.506712
0.431766
0.266292
0.120939
0.0831763
0.120939
0.266293
0.431765
0.506708
0.46636
0.417296
0.28051
0.123412
0.0709529
0.123412
0.280511
0.417294
0.466357
0.373275
0.360692
0.291786
0.151615
0.0665755
0.151615
0.291785
0.36069
0.373274
)
;

boundaryField
{
    injectionXMinus
    {
        type            zeroGradient;
    }
    injectionXPlus
    {
        type            zeroGradient;
    }
    injectionYMinus
    {
        type            zeroGradient;
    }
    injectionYPlus
    {
        type            zeroGradient;
    }
    inletXMinus
    {
        type            fixedValue;
        value           uniform 1;
    }
    inletXPlus
    {
        type            fixedValue;
        value           uniform 1;
    }
    inletYMinus
    {
        type            fixedValue;
        value           uniform 1;
    }
    inletYPlus
    {
        type            fixedValue;
        value           uniform 1;
    }
    outlet
    {
        type            zeroGradient;
    }
    valve
    {
        type            zeroGradient;
    }
    walls
    {
        type            zeroGradient;
    }
}


// ************************************************************************* //
