/*--------------------------------*- C++ -*----------------------------------*\
  =========                 |
  \\      /  F ield         | OpenFOAM: The Open Source CFD Toolbox
   \\    /   O peration     | Website:  https://openfoam.org
    \\  /    A nd           | Version:  6
     \\/     M anipulation  |
\*---------------------------------------------------------------------------*/
FoamFile
{
    version     2.0;
    format      ascii;
    class       volScalarField;
    location    "0.8";
    object      alpha_gas;
}
// * * * * * * * * * * * * * * * * * * * * * * * * * * * * * * * * * * * * * //

dimensions      [0 0 0 0 0 0 0];

internalField   nonuniform List<scalar> 
3029
(
2.58976e-13
2.76042e-13
4.1139e-13
2.1116e-13
-1.15526e-12
2.11182e-13
4.11374e-13
2.76028e-13
2.58963e-13
-1.17908e-14
-2.93411e-13
-9.95316e-13
3.05002e-12
1.45955e-11
3.04959e-12
-9.95344e-13
-2.93383e-13
-1.17892e-14
8.06865e-13
2.21776e-12
2.49655e-12
-3.05259e-11
-8.91468e-11
-3.0523e-11
2.49698e-12
2.21762e-12
8.06822e-13
-5.27874e-12
-1.5166e-11
-1.08578e-11
1.98965e-10
4.9447e-10
1.98947e-10
-1.08618e-11
-1.51652e-11
-5.27844e-12
2.99576e-11
8.82024e-11
4.20521e-11
-1.14852e-09
-2.66568e-09
-1.14843e-09
4.20766e-11
8.81981e-11
2.99559e-11
-1.52884e-10
-4.86778e-10
-2.39184e-10
6.21938e-09
1.4151e-08
6.2189e-09
-2.39317e-10
-4.86754e-10
-1.52876e-10
7.26538e-10
2.60303e-09
1.63475e-09
-3.26594e-08
-7.45542e-08
-3.2657e-08
1.63542e-09
2.6029e-09
7.26495e-10
-3.28345e-09
-1.37071e-08
-1.14675e-08
1.68749e-07
3.91394e-07
1.68737e-07
-1.14707e-08
-1.37064e-08
-3.28324e-09
1.40973e-08
7.14221e-08
7.76077e-08
-8.64823e-07
-2.05249e-06
-8.64767e-07
7.76231e-08
7.14179e-08
1.40964e-08
-5.68315e-08
-3.69333e-07
-5.04373e-07
4.41342e-06
1.07654e-05
4.41315e-06
-5.04445e-07
-3.6931e-07
-5.68274e-08
2.06938e-07
1.89599e-06
3.1686e-06
-2.24746e-05
-5.65329e-05
-2.24733e-05
3.16894e-06
1.89587e-06
2.06921e-07
-6.09317e-07
-9.6434e-06
-1.94475e-05
0.000114288
0.000297746
0.000114282
-1.94488e-05
-9.64284e-06
-6.09252e-07
7.02257e-07
4.79577e-05
0.000118243
-0.000580184
-0.00158015
-0.00058016
0.000118249
4.79552e-05
7.02031e-07
8.89476e-06
-0.000227751
-0.00072046
0.00293022
0.00856538
0.00293011
-0.000720478
-0.00022774
8.89535e-06
-0.00010391
0.000954972
0.00447509
-0.0143931
-0.0498927
-0.0143927
0.00447513
0.000954932
-0.00010391
0.000694272
-0.00250199
-0.0282704
0.0558918
0.417349
0.0558903
-0.0282703
-0.00250188
0.000694263
-0.00228439
-0.00975232
0.120411
0.685339
0.999123
0.685337
0.120409
-0.00975225
-0.00228434
-0.00828701
0.00861985
0.342559
0.954126
1.02528
0.954124
0.342555
0.00861935
-0.00828689
-0.0120874
0.0342745
0.467614
1.03015
1.03369
1.03015
0.467609
0.0342733
-0.0120872
-0.012716
0.0546268
0.521448
1.04389
1.03592
1.04388
0.521443
0.0546251
-0.0127158
-0.0111727
0.0687796
0.540201
1.03782
1.03581
1.03782
0.540195
0.0687773
-0.0111726
-0.00844726
0.0789686
0.544048
1.02551
1.03439
1.02551
0.544041
0.078966
-0.00844718
-0.00513291
0.0870958
0.54216
1.01142
1.03198
1.01142
0.542152
0.087093
-0.00513288
-0.00153404
0.0942905
0.53838
0.997042
1.02876
0.997038
0.538373
0.0942875
-0.00153408
0.00219687
0.101198
0.534409
0.982887
1.02486
0.982884
0.534402
0.101195
0.00219676
0.00597819
0.108264
0.531112
0.96912
1.02032
0.969117
0.531105
0.108261
0.005978
0.00976776
0.115894
0.528987
0.95559
1.01502
0.955586
0.528981
0.115891
0.00976749
0.0135687
0.124478
0.528304
0.94204
1.00894
0.942036
0.528297
0.124475
0.0135684
0.0174753
0.134064
0.527555
0.925408
0.999124
0.925405
0.52755
0.134062
0.0174749
0.0216388
0.143663
0.524493
0.905617
0.987463
0.905614
0.524489
0.14366
0.0216383
0.0261234
0.149155
0.504691
0.854044
0.939492
0.854042
0.504687
0.149153
0.0261228
0.0276252
0.142097
0.477534
0.825028
0.921118
0.825026
0.477531
0.142095
0.0276245
0.0232043
0.107045
0.415869
0.823024
0.964286
0.823023
0.415867
0.107043
0.0232035
0.015313
0.0432497
0.230538
0.663071
0.946391
0.663071
0.230537
0.0432488
0.0153123
2.76043e-13
2.79321e-13
3.81072e-13
1.48625e-13
-9.84811e-13
1.48654e-13
3.81058e-13
2.79306e-13
2.76031e-13
-2.93416e-13
-3.81712e-13
-8.26203e-13
2.05493e-12
9.64915e-12
2.05455e-12
-8.26245e-13
-3.8169e-13
-2.93405e-13
2.21778e-12
2.64796e-12
3.16557e-12
-1.36239e-11
-4.7205e-11
-1.36223e-11
3.1657e-12
2.64783e-12
2.2177e-12
-1.51662e-11
-1.47315e-11
-1.63463e-11
6.72149e-11
2.25574e-10
6.72062e-11
-1.63476e-11
-1.47309e-11
-1.51657e-11
8.82031e-11
7.59218e-11
8.6821e-11
-3.15074e-10
-1.10066e-09
-3.15034e-10
8.68265e-11
7.59189e-11
8.82009e-11
-4.86781e-10
-3.8022e-10
-4.82051e-10
1.43542e-09
5.45934e-09
1.43523e-09
-4.82074e-10
-3.80206e-10
-4.8677e-10
2.60305e-09
1.85643e-09
2.67628e-09
-6.41555e-09
-2.74033e-08
-6.41461e-09
2.67636e-09
1.85636e-09
2.603e-09
-1.37072e-08
-8.90158e-09
-1.47962e-08
2.7929e-08
1.38559e-07
2.79245e-08
-1.47965e-08
-8.90123e-09
-1.37069e-08
7.14227e-08
4.18099e-08
8.10944e-08
-1.17013e-07
-7.03959e-07
-1.16992e-07
8.10951e-08
4.18081e-08
7.14212e-08
-3.69336e-07
-1.91619e-07
-4.40359e-07
4.60087e-07
3.58732e-06
4.59983e-07
-4.40359e-07
-1.9161e-07
-3.69329e-07
1.89601e-06
8.49458e-07
2.36728e-06
-1.60384e-06
-1.83153e-05
-1.60334e-06
2.36726e-06
8.49416e-07
1.89598e-06
-9.64346e-06
-3.59451e-06
-1.25988e-05
4.0521e-06
9.35563e-05
4.05001e-06
-1.25986e-05
-3.59431e-06
-9.6433e-06
4.79579e-05
1.39134e-05
6.62096e-05
3.65128e-06
-0.000477296
3.6598e-06
6.62085e-05
1.39126e-05
4.79571e-05
-0.000227751
-4.45745e-05
-0.000340593
-0.000177108
0.00241274
-0.00017714
-0.000340587
-4.45722e-05
-0.000227748
0.000954971
7.04539e-05
0.00166165
0.00214664
-0.011686
0.00214673
0.00166161
7.04486e-05
0.000954959
-0.00250198
0.000485266
-0.00679188
-0.0229968
0.0420632
-0.0229969
-0.00679172
0.000485262
-0.00250194
-0.00975233
-0.00463599
0.00939242
0.223768
0.593549
0.223767
0.00939206
-0.00463589
-0.0097523
0.00861976
-0.00762803
0.0763019
0.506323
0.876096
0.50632
0.0763004
-0.00762793
0.00861958
0.0342743
-0.00378572
0.136412
0.644721
0.95616
0.644717
0.136409
-0.00378574
0.0342739
0.0546265
0.00427663
0.175081
0.697279
0.969208
0.697275
0.175078
0.00427643
0.0546258
0.0687789
0.0139826
0.198497
0.711754
0.961058
0.711749
0.198493
0.0139822
0.0687782
0.0789677
0.024121
0.213844
0.711153
0.94636
0.711148
0.213839
0.0241204
0.0789668
0.0870947
0.0342689
0.225333
0.705021
0.92989
0.705016
0.225328
0.0342681
0.0870937
0.094289
0.0443341
0.235045
0.696761
0.912852
0.696755
0.235039
0.0443331
0.0942879
0.101196
0.0543662
0.243893
0.68742
0.895234
0.687414
0.243887
0.0543651
0.101195
0.108262
0.0645351
0.252337
0.676874
0.876349
0.676869
0.252332
0.0645339
0.108261
0.115892
0.0751129
0.260441
0.66369
0.854104
0.663685
0.260436
0.0751115
0.11589
0.124475
0.0868125
0.2685
0.645169
0.824789
0.645164
0.268495
0.0868111
0.124474
0.134061
0.0997295
0.272424
0.610492
0.774743
0.610489
0.27242
0.099728
0.13406
0.143659
0.117005
0.278445
0.557048
0.699486
0.557045
0.278442
0.117003
0.143657
0.149151
0.129304
0.224288
0.381802
0.467518
0.381801
0.224286
0.129303
0.14915
0.142093
0.136801
0.209035
0.32193
0.391436
0.321929
0.209033
0.1368
0.142092
0.107041
0.113757
0.255162
0.492839
0.593062
0.492838
0.25516
0.113756
0.10704
0.0432478
0.0350249
0.17109
0.588507
0.878014
0.588507
0.171089
0.035024
0.0432471
4.11392e-13
3.81073e-13
3.80172e-13
1.4847e-13
-5.468e-13
1.48458e-13
3.80138e-13
3.81057e-13
4.11379e-13
-9.95308e-13
-8.26196e-13
-7.88918e-13
4.30514e-13
3.31494e-12
4.30275e-13
-7.88977e-13
-8.26189e-13
-9.95306e-13
2.49646e-12
3.16552e-12
3.42781e-12
4.24095e-14
-8.30068e-12
4.26899e-14
3.42774e-12
3.16549e-12
2.49656e-12
-1.08571e-11
-1.63461e-11
-1.7361e-11
-8.66633e-12
1.95748e-11
-8.66778e-12
-1.73611e-11
-1.6346e-11
-1.08581e-11
4.20486e-11
8.68198e-11
8.6378e-11
6.72888e-11
-3.35321e-11
6.72928e-11
8.63778e-11
8.68195e-11
4.2055e-11
-2.39168e-10
-4.82046e-10
-4.24888e-10
-4.17751e-10
-5.2517e-11
-4.17763e-10
-4.24887e-10
-4.82044e-10
-2.39202e-10
1.63468e-09
2.67626e-09
2.06306e-09
2.40959e-09
1.13746e-09
2.40962e-09
2.06306e-09
2.67625e-09
1.63485e-09
-1.14672e-08
-1.47962e-08
-9.9223e-09
-1.35085e-08
-9.70813e-09
-1.35086e-08
-9.92226e-09
-1.47961e-08
-1.1468e-08
7.76064e-08
8.10944e-08
4.70113e-08
7.44841e-08
6.86843e-08
7.44838e-08
4.70111e-08
8.10941e-08
7.76103e-08
-5.04367e-07
-4.4036e-07
-2.18182e-07
-4.05895e-07
-4.49833e-07
-4.05891e-07
-2.18181e-07
-4.40358e-07
-5.04386e-07
3.16858e-06
2.36729e-06
9.82621e-07
2.18768e-06
2.82644e-06
2.18765e-06
9.82612e-07
2.36728e-06
3.16866e-06
-1.94474e-05
-1.25988e-05
-4.2399e-06
-1.16622e-05
-1.73368e-05
-1.1662e-05
-4.23984e-06
-1.25988e-05
-1.94478e-05
0.000118243
6.62097e-05
1.70971e-05
6.12917e-05
0.000104912
6.12906e-05
1.70968e-05
6.62096e-05
0.000118245
-0.000720461
-0.000340594
-6.09377e-05
-0.000314157
-0.000632496
-0.000314151
-6.09366e-05
-0.000340593
-0.000720465
0.00447509
0.00166165
0.000160942
0.00151341
0.00383156
0.00151338
0.000160939
0.00166164
0.0044751
-0.0282704
-0.00679187
-3.98794e-05
-0.00592068
-0.0228843
-0.00592057
-3.98727e-05
-0.00679185
-0.0282703
0.120411
0.00939236
-0.00221291
0.00444935
0.0792389
0.00444915
-0.0022129
0.00939231
0.12041
0.342558
0.0763016
0.000847803
0.0634104
0.258871
0.0634094
0.000847742
0.0763013
0.342557
0.467613
0.136411
0.00987361
0.118057
0.362408
0.118055
0.00987341
0.136411
0.467611
0.521447
0.175081
0.0216447
0.153605
0.406384
0.153603
0.0216444
0.17508
0.521445
0.5402
0.198496
0.0342522
0.175176
0.420575
0.175174
0.0342517
0.198495
0.540197
0.544046
0.213842
0.0469515
0.189188
0.422021
0.189185
0.0469509
0.213841
0.544042
0.542157
0.22533
0.0595383
0.199346
0.418361
0.199343
0.0595375
0.225329
0.542154
0.538377
0.235042
0.0719497
0.207601
0.412677
0.207598
0.0719488
0.235041
0.538374
0.534406
0.243889
0.0841853
0.214572
0.4058
0.214568
0.0841842
0.243888
0.534402
0.531108
0.252333
0.0963351
0.220134
0.397164
0.220131
0.096334
0.252332
0.531105
0.528982
0.260436
0.108449
0.223448
0.3848
0.223445
0.108448
0.260435
0.528979
0.528298
0.268494
0.121073
0.222426
0.364329
0.222424
0.121072
0.268493
0.528295
0.527549
0.272418
0.131544
0.211392
0.32583
0.21139
0.131543
0.272417
0.527546
0.524487
0.278439
0.147278
0.177659
0.248294
0.177658
0.147277
0.278438
0.524484
0.504684
0.224283
0.0571317
0.0429818
0.0458736
0.0429817
0.0571316
0.224282
0.504682
0.477527
0.20903
0.20903
0.477526
0.415862
0.255156
0.197925
0.330502
0.448206
0.330501
0.197924
0.255156
0.415861
0.230532
0.171084
0.156957
0.409634
0.651342
0.409633
0.156956
0.171083
0.230532
0.141222
0.412499
0.692808
0.412499
0.141221
0.137007
0.407216
0.696613
0.407216
0.137006
0.137492
0.403734
0.692566
0.403734
0.137492
0.139709
0.40193
0.687151
0.40193
0.139708
0.142504
0.400926
0.681621
0.400926
0.142504
0.145461
0.400228
0.676156
0.400228
0.14546
0.14843
0.399626
0.67076
0.399626
0.14843
0.151367
0.399031
0.665398
0.399031
0.151366
0.154232
0.398434
0.660133
0.398435
0.154231
0.15712
0.397748
0.654657
0.397748
0.15712
0.159548
0.397233
0.650196
0.397234
0.159547
0.163783
0.395989
0.641714
0.395989
0.163783
2.11155e-13
1.48619e-13
1.48463e-13
7.42818e-14
-1.52767e-13
7.42449e-14
1.48433e-13
1.4862e-13
2.11156e-13
3.05008e-12
2.055e-12
4.30559e-13
-2.87829e-13
-4.62046e-14
-2.8796e-13
4.30489e-13
2.05492e-12
3.04992e-12
-3.05263e-11
-1.36243e-11
4.2237e-14
3.47841e-12
3.24727e-12
3.47836e-12
4.2113e-14
-1.3624e-11
-3.05251e-11
1.98966e-10
6.72167e-11
-8.66575e-12
-1.71041e-11
-1.67286e-11
-1.71048e-11
-8.66538e-12
6.72159e-11
1.98959e-10
-1.14853e-09
-3.15083e-10
6.7287e-11
7.65052e-11
7.97659e-11
7.65082e-11
6.72851e-11
-3.15082e-10
-1.14849e-09
6.21941e-09
1.43546e-09
-4.17746e-10
-3.42706e-10
-3.80683e-10
-3.42722e-10
-4.1774e-10
1.43546e-09
6.21922e-09
-3.26596e-08
-6.41571e-09
2.40958e-09
1.55404e-09
1.84955e-09
1.55412e-09
2.40956e-09
-6.41573e-09
-3.26586e-08
1.68749e-07
2.79297e-08
-1.35085e-08
-7.10809e-09
-9.14934e-09
-7.10847e-09
-1.35085e-08
2.79298e-08
1.68745e-07
-8.64825e-07
-1.17016e-07
7.44843e-08
3.23647e-08
4.57209e-08
3.23664e-08
7.44847e-08
-1.17016e-07
-8.64803e-07
4.41342e-06
4.60098e-07
-4.05896e-07
-1.4492e-07
-2.29451e-07
-1.44927e-07
-4.059e-07
4.60098e-07
4.41332e-06
-2.24746e-05
-1.60389e-06
2.18768e-06
6.27779e-07
1.14926e-06
6.27809e-07
2.18771e-06
-1.60387e-06
-2.24741e-05
0.000114287
4.05218e-06
-1.16623e-05
-2.57001e-06
-5.7096e-06
-2.57012e-06
-1.16624e-05
4.05213e-06
0.000114285
-0.000580183
3.6513e-06
6.12917e-05
9.43639e-06
2.77799e-05
9.43675e-06
6.12924e-05
3.65162e-06
-0.000580172
0.0029302
-0.00017711
-0.000314157
-2.64047e-05
-0.000128281
-2.64055e-05
-0.00031416
-0.000177112
0.00293016
-0.014393
0.00214665
0.00151341
5.75512e-06
0.000509788
5.75509e-06
0.00151342
0.00214666
-0.0143928
0.0558914
-0.0229969
-0.00592067
0.000652788
-0.00105611
0.0006528
-0.00592071
-0.0229969
0.0558906
0.685339
0.223768
0.0044493
-0.00467977
-0.00822877
-0.00467983
0.00444934
0.223767
0.685337
0.954125
0.506322
0.06341
-0.00938053
-0.00125346
-0.00938066
0.0634103
0.506321
0.954124
1.03015
0.64472
0.118057
-0.00791468
0.0119908
-0.00791484
0.118057
0.644718
1.03015
1.04389
0.697278
0.153604
-0.00220263
0.0237886
-0.00220278
0.153605
0.697277
1.04388
1.03782
0.711753
0.175175
0.00535154
0.0329007
0.00535141
0.175176
0.711751
1.03782
1.02551
0.711151
0.189186
0.0134972
0.0401339
0.0134971
0.189187
0.71115
1.02551
1.01142
0.705019
0.199343
0.0217352
0.0462652
0.0217351
0.199344
0.705017
1.01142
0.997042
0.696758
0.207598
0.0298338
0.0517403
0.0298337
0.207599
0.696756
0.997039
0.982887
0.687417
0.214568
0.0376727
0.0566925
0.0376725
0.214569
0.687415
0.982884
0.969121
0.67687
0.22013
0.045082
0.060973
0.0450818
0.220131
0.676869
0.969118
0.95559
0.663686
0.223442
0.0517406
0.0641249
0.0517405
0.223443
0.663684
0.955587
0.94204
0.645164
0.222421
0.0567504
0.0650209
0.0567503
0.222421
0.645163
0.942037
0.925408
0.610487
0.211386
0.058871
0.061876
0.0588709
0.211386
0.610486
0.925406
0.905617
0.557042
0.177654
0.0499477
0.0484485
0.0499477
0.177654
0.557042
0.905615
0.854044
0.381797
0.0429791
0.0418889
0.0374813
0.041889
0.0429794
0.381797
0.854043
0.825027
0.321925
0.321925
0.825026
0.823022
0.492834
0.330497
0.271253
0.340175
0.271254
0.330498
0.492835
0.823022
0.663067
0.588502
0.409628
0.305123
0.394265
0.305124
0.409629
0.588503
0.663068
0.412494
0.326036
0.422238
0.326036
0.412495
0.407211
0.335036
0.43251
0.335036
0.407212
0.403729
0.339264
0.435725
0.339264
0.403729
0.401925
0.341804
0.436446
0.341804
0.401925
0.400921
0.343741
0.436324
0.343741
0.400921
0.400223
0.345431
0.435915
0.345431
0.400223
0.399621
0.346988
0.435403
0.346988
0.399621
0.399026
0.348445
0.434837
0.348445
0.399026
0.39843
0.349816
0.434255
0.349815
0.39843
0.397743
0.351111
0.433584
0.35111
0.397743
0.397229
0.352227
0.433086
0.352226
0.397229
0.395985
0.35389
0.431884
0.353889
0.395985
-1.15525e-12
-9.84806e-13
-5.46803e-13
-1.5277e-13
-4.24089e-14
-1.52761e-13
-5.46792e-13
-9.84793e-13
-1.15523e-12
1.45954e-11
9.64912e-12
3.31498e-12
-4.61832e-14
-6.01965e-13
-4.61292e-14
3.31512e-12
9.64916e-12
1.45952e-11
-8.91463e-11
-4.7205e-11
-8.30094e-12
3.24726e-12
3.08724e-12
3.2473e-12
-8.30153e-12
-4.72052e-11
-8.91452e-11
4.94467e-10
2.25574e-10
1.95759e-11
-1.67288e-11
-1.17097e-11
-1.67299e-11
1.95784e-11
2.25576e-10
4.94462e-10
-2.66566e-09
-1.10066e-09
-3.35369e-11
7.97677e-11
4.83007e-11
7.97735e-11
-3.35498e-11
-1.10067e-09
-2.66564e-09
1.41509e-08
5.45935e-09
-5.24969e-11
-3.80693e-10
-2.06268e-10
-3.80727e-10
-5.24374e-11
5.45942e-09
1.41508e-08
-7.45539e-08
-2.74033e-08
1.13737e-09
1.8496e-09
8.96097e-10
1.84977e-09
1.1371e-09
-2.74037e-08
-7.45532e-08
3.91393e-07
1.38559e-07
-9.7078e-09
-9.14956e-09
-3.89253e-09
-9.15047e-09
-9.70658e-09
1.38561e-07
3.9139e-07
-2.05248e-06
-7.03959e-07
6.86831e-08
4.57219e-08
1.65582e-08
4.57264e-08
6.86777e-08
-7.03967e-07
-2.05247e-06
1.07653e-05
3.58731e-06
-4.49829e-07
-2.29455e-07
-6.75208e-08
-2.29477e-07
-4.49806e-07
3.58735e-06
1.07653e-05
-5.65328e-05
-1.83153e-05
2.82642e-06
1.14928e-06
2.54217e-07
1.14938e-06
2.82633e-06
-1.83155e-05
-5.65325e-05
0.000297745
9.35561e-05
-1.73368e-05
-5.70965e-06
-8.13862e-07
-5.71011e-06
-1.73364e-05
9.35568e-05
0.000297744
-0.00158014
-0.000477295
0.000104912
2.778e-05
1.58081e-06
2.7782e-05
0.000104911
-0.000477298
-0.00158014
0.00856536
0.00241273
-0.000632497
-0.000128282
5.0833e-06
-0.000128289
-0.000632493
0.00241274
0.00856534
-0.0498927
-0.011686
0.00383156
0.000509787
-8.50083e-05
0.000509813
0.00383156
-0.011686
-0.0498925
0.417349
0.0420629
-0.0228843
-0.0010561
0.00058053
-0.00105616
-0.0228843
0.0420629
0.417347
0.999123
0.593548
0.0792387
-0.00822876
-0.0017347
-0.00822888
0.079239
0.593548
0.999123
1.02528
0.876096
0.258871
-0.00125351
-0.00708188
-0.00125342
0.258871
0.876096
1.02528
1.03369
0.95616
0.362408
0.0119906
-0.0106223
0.011991
0.362409
0.956159
1.03369
1.03592
0.969208
0.406383
0.0237882
-0.0111392
0.023789
0.406385
0.969207
1.03592
1.03581
0.961058
0.420574
0.0329002
-0.00943601
0.0329012
0.420575
0.961057
1.03581
1.03439
0.946361
0.422019
0.0401331
-0.006451
0.0401343
0.422021
0.94636
1.03439
1.03198
0.929891
0.418359
0.0462641
-0.0027431
0.0462654
0.418361
0.92989
1.03198
1.02876
0.912853
0.412676
0.051739
0.00126779
0.0517403
0.412677
0.912852
1.02876
1.02486
0.895236
0.405798
0.056691
0.0054217
0.0566923
0.4058
0.895235
1.02486
1.02032
0.876351
0.397161
0.0609714
0.00965818
0.0609726
0.397163
0.87635
1.02032
1.01502
0.854107
0.384797
0.0641231
0.0139434
0.0641242
0.384799
0.854106
1.01502
1.00895
0.824791
0.364325
0.0650189
0.0182103
0.0650199
0.364327
0.824791
1.00895
0.999129
0.774745
0.325827
0.061874
0.0224504
0.0618747
0.325828
0.774744
0.999128
0.987469
0.699487
0.24829
0.0484466
0.0259764
0.048447
0.248291
0.699487
0.987468
0.939498
0.467517
0.0458703
0.0374804
0.0288094
0.0374805
0.0458708
0.467518
0.939497
0.921124
0.391434
0.391435
0.921125
0.964293
0.593064
0.448205
0.340174
0.305713
0.340176
0.448206
0.593065
0.964294
0.9464
0.878022
0.651345
0.394265
0.308082
0.394266
0.651346
0.878022
0.9464
0.692812
0.422238
0.313317
0.42224
0.692812
0.696617
0.432511
0.31783
0.432511
0.696616
0.69257
0.435726
0.321394
0.435726
0.692569
0.687155
0.436447
0.324392
0.436446
0.687155
0.681626
0.436325
0.327092
0.436324
0.681625
0.67616
0.435916
0.329615
0.435916
0.676159
0.670764
0.435404
0.332012
0.435403
0.670763
0.665402
0.434838
0.334299
0.434837
0.665401
0.660137
0.434257
0.336476
0.434255
0.660136
0.654661
0.433586
0.338588
0.433584
0.65466
0.650199
0.433088
0.340379
0.433085
0.650198
0.641718
0.431885
0.343251
0.431882
0.641716
2.11186e-13
1.48658e-13
1.4846e-13
7.42477e-14
-1.52762e-13
7.4308e-14
1.48485e-13
1.48643e-13
2.11178e-13
3.04951e-12
2.0545e-12
4.30266e-13
-2.87964e-13
-4.6121e-14
-2.87829e-13
4.30437e-13
2.05464e-12
3.04956e-12
-3.05224e-11
-1.36221e-11
4.26667e-14
3.47838e-12
3.2473e-12
3.47834e-12
4.23588e-14
-1.36226e-11
-3.05227e-11
1.98944e-10
6.72055e-11
-8.66761e-12
-1.7105e-11
-1.673e-11
-1.71054e-11
-8.6665e-12
6.72088e-11
1.98946e-10
-1.14841e-09
-3.15032e-10
6.72921e-11
7.65094e-11
7.97744e-11
7.65118e-11
6.72886e-11
-3.15048e-10
-1.14842e-09
6.21883e-09
1.43522e-09
-4.17761e-10
-3.42728e-10
-3.80731e-10
-3.42741e-10
-4.1775e-10
1.4353e-09
6.21888e-09
-3.26567e-08
-6.41458e-09
2.40961e-09
1.55415e-09
1.84979e-09
1.55421e-09
2.40958e-09
-6.41499e-09
-3.2657e-08
1.68736e-07
2.79244e-08
-1.35086e-08
-7.1086e-09
-9.15055e-09
-7.10888e-09
-1.35085e-08
2.79264e-08
1.68737e-07
-8.64761e-07
-1.16991e-07
7.44839e-08
3.23668e-08
4.57266e-08
3.23682e-08
7.44842e-08
-1.17e-07
-8.64767e-07
4.41312e-06
4.59979e-07
-4.05892e-07
-1.44929e-07
-2.29478e-07
-1.44935e-07
-4.05895e-07
4.60022e-07
4.41315e-06
-2.24732e-05
-1.60332e-06
2.18765e-06
6.27814e-07
1.14938e-06
6.27838e-07
2.18768e-06
-1.60352e-06
-2.24733e-05
0.000114281
4.04992e-06
-1.16621e-05
-2.57014e-06
-5.71011e-06
-2.57023e-06
-1.16622e-05
4.05073e-06
0.000114282
-0.000580157
3.66025e-06
6.12907e-05
9.43677e-06
2.77819e-05
9.43708e-06
6.12916e-05
3.65707e-06
-0.000580159
0.0029301
-0.000177142
-0.000314151
-2.64055e-05
-0.000128289
-2.64064e-05
-0.000314156
-0.000177131
0.00293011
-0.0143926
0.00214674
0.00151339
5.75491e-06
0.00050981
5.75584e-06
0.00151341
0.00214671
-0.0143926
0.05589
-0.022997
-0.00592056
0.000652798
-0.00105615
0.000652805
-0.00592064
-0.0229969
0.0558899
0.685336
0.223766
0.00444913
-0.00467981
-0.00822886
-0.00467985
0.00444923
0.223767
0.685336
0.954124
0.50632
0.0634093
-0.00938062
-0.00125347
-0.0093807
0.0634098
0.50632
0.954123
1.03015
0.644717
0.118055
-0.0079148
0.0119909
-0.00791489
0.118056
0.644717
1.03015
1.04388
0.697275
0.153603
-0.00220278
0.0237886
-0.00220284
0.153604
0.697276
1.04388
1.03782
0.71175
0.175173
0.00535135
0.0329007
0.00535133
0.175175
0.711751
1.03782
1.02551
0.711149
0.189185
0.0134969
0.0401336
0.0134969
0.189187
0.71115
1.02551
1.01142
0.705018
0.199343
0.021735
0.0462645
0.021735
0.199345
0.705018
1.01142
0.997041
0.696757
0.207598
0.0298335
0.0517392
0.0298335
0.2076
0.696758
0.99704
0.982887
0.687417
0.214569
0.0376723
0.0566911
0.0376724
0.214571
0.687418
0.982886
0.969121
0.676873
0.220132
0.0450815
0.0609712
0.0450816
0.220133
0.676873
0.96912
0.955592
0.66369
0.223445
0.0517401
0.0641226
0.0517402
0.223447
0.66369
0.955591
0.942043
0.64517
0.222424
0.0567497
0.0650182
0.0567498
0.222426
0.64517
0.942042
0.925413
0.610494
0.21139
0.0588701
0.061873
0.0588702
0.211391
0.610495
0.925412
0.905623
0.557051
0.177658
0.0499463
0.0484454
0.0499465
0.177658
0.557051
0.905623
0.854052
0.381804
0.0429794
0.0418878
0.0374797
0.0418879
0.0429799
0.381804
0.854052
0.825036
0.321931
0.321932
0.825037
0.823035
0.492844
0.330505
0.271257
0.340175
0.271257
0.330506
0.492844
0.823035
0.663084
0.588519
0.40964
0.305128
0.394266
0.305128
0.40964
0.588517
0.663083
0.412507
0.326042
0.422239
0.326041
0.412506
0.407224
0.335041
0.432511
0.335041
0.407223
0.403742
0.339269
0.435726
0.339269
0.403741
0.401938
0.341809
0.436447
0.341808
0.401937
0.400934
0.343747
0.436325
0.343745
0.400933
0.400236
0.345436
0.435916
0.345435
0.400235
0.399634
0.346993
0.435404
0.346992
0.399632
0.399039
0.34845
0.434837
0.348449
0.399038
0.398442
0.349821
0.434255
0.349819
0.398441
0.397756
0.351115
0.433584
0.351114
0.397754
0.397241
0.352231
0.433086
0.35223
0.39724
0.395997
0.353894
0.431883
0.353892
0.395996
4.11371e-13
3.81055e-13
3.80136e-13
1.48438e-13
-5.46793e-13
1.48481e-13
3.80153e-13
3.81048e-13
4.11367e-13
-9.95346e-13
-8.26245e-13
-7.88981e-13
4.30462e-13
3.31514e-12
4.30463e-13
-7.88922e-13
-8.26202e-13
-9.95336e-13
2.49702e-12
3.16571e-12
3.42776e-12
4.21769e-14
-8.30162e-12
4.22726e-14
3.42771e-12
3.16564e-12
2.49692e-12
-1.08622e-11
-1.63477e-11
-1.73612e-11
-8.66554e-12
1.95788e-11
-8.66624e-12
-1.7361e-11
-1.63472e-11
-1.08613e-11
4.20789e-11
8.68269e-11
8.6378e-11
6.72856e-11
-3.35511e-11
6.72879e-11
8.63777e-11
8.68243e-11
4.2074e-11
-2.39329e-10
-4.82076e-10
-4.24888e-10
-4.17741e-10
-5.24324e-11
-4.17748e-10
-4.24888e-10
-4.82065e-10
-2.39302e-10
1.63547e-09
2.67637e-09
2.06306e-09
2.40957e-09
1.13709e-09
2.40958e-09
2.06306e-09
2.67633e-09
1.63534e-09
-1.1471e-08
-1.47966e-08
-9.92228e-09
-1.35086e-08
-9.70654e-09
-1.35085e-08
-9.92227e-09
-1.47964e-08
-1.14703e-08
7.76241e-08
8.10953e-08
4.70111e-08
7.44847e-08
6.86776e-08
7.44842e-08
4.70111e-08
8.10948e-08
7.76211e-08
-5.0445e-07
-4.4036e-07
-2.18181e-07
-4.059e-07
-4.49806e-07
-4.05896e-07
-2.18181e-07
-4.40359e-07
-5.04435e-07
3.16896e-06
2.36727e-06
9.82613e-07
2.1877e-06
2.82633e-06
2.18768e-06
9.82611e-07
2.36727e-06
3.16889e-06
-1.94489e-05
-1.25986e-05
-4.23984e-06
-1.16624e-05
-1.73364e-05
-1.16622e-05
-4.23983e-06
-1.25987e-05
-1.94486e-05
0.000118249
6.62086e-05
1.70967e-05
6.12924e-05
0.000104911
6.12915e-05
1.70967e-05
6.6209e-05
0.000118248
-0.00072048
-0.000340588
-6.09365e-05
-0.00031416
-0.000632494
-0.000314155
-6.09362e-05
-0.00034059
-0.000720477
0.00447514
0.00166161
0.000160938
0.00151342
0.00383156
0.0015134
0.000160937
0.00166162
0.00447513
-0.0282703
-0.00679173
-3.98715e-05
-0.0059207
-0.0228843
-0.00592061
-3.98695e-05
-0.00679177
-0.0282703
0.120409
0.00939204
-0.0022129
0.00444931
0.0792389
0.00444917
-0.00221289
0.00939212
0.120409
0.342555
0.0763004
0.000847738
0.0634102
0.258871
0.0634095
0.000847719
0.0763007
0.342555
0.467609
0.136409
0.00987342
0.118057
0.362408
0.118056
0.00987335
0.13641
0.467609
0.521443
0.175078
0.0216444
0.153605
0.406384
0.153603
0.0216443
0.175079
0.521443
0.540196
0.198493
0.0342518
0.175176
0.420575
0.175174
0.0342516
0.198494
0.540196
0.544042
0.21384
0.046951
0.189187
0.42202
0.189185
0.0469508
0.213841
0.544042
0.542155
0.225329
0.0595378
0.199344
0.418359
0.199342
0.0595375
0.22533
0.542155
0.538376
0.235041
0.0719492
0.207599
0.412676
0.207597
0.0719489
0.235042
0.538376
0.534406
0.24389
0.0841849
0.214569
0.405798
0.214567
0.0841845
0.243891
0.534406
0.53111
0.252335
0.0963349
0.220132
0.39716
0.220129
0.0963345
0.252336
0.53111
0.528986
0.260439
0.108449
0.223444
0.384796
0.223442
0.108449
0.26044
0.528986
0.528304
0.268499
0.121074
0.222423
0.364324
0.222421
0.121073
0.2685
0.528304
0.527557
0.272425
0.131544
0.211387
0.325825
0.211386
0.131544
0.272425
0.527557
0.524497
0.278447
0.147279
0.177654
0.248288
0.177654
0.147278
0.278447
0.524497
0.504696
0.224289
0.0571302
0.0429778
0.0458684
0.0429778
0.0571304
0.22429
0.504697
0.47754
0.209036
0.209037
0.477541
0.415876
0.255165
0.197929
0.330502
0.448205
0.330501
0.197929
0.255166
0.415876
0.230543
0.171093
0.156961
0.409636
0.651347
0.409635
0.15696
0.171093
0.230543
0.141226
0.412502
0.692814
0.412501
0.141225
0.137011
0.407219
0.696618
0.407218
0.13701
0.137496
0.403736
0.692571
0.403736
0.137496
0.139713
0.401933
0.687156
0.401932
0.139712
0.142508
0.400929
0.681626
0.400928
0.142508
0.145465
0.400231
0.676161
0.40023
0.145464
0.148435
0.399628
0.670765
0.399628
0.148434
0.151371
0.399034
0.665403
0.399033
0.151371
0.154236
0.398437
0.660137
0.398437
0.154236
0.157125
0.39775
0.654661
0.39775
0.157124
0.159552
0.397236
0.650199
0.397236
0.159552
0.163788
0.395992
0.641717
0.395991
0.163787
2.76026e-13
2.79304e-13
3.81054e-13
1.48625e-13
-9.84793e-13
1.48639e-13
3.81049e-13
2.79298e-13
2.7602e-13
-2.93383e-13
-3.81687e-13
-8.26196e-13
2.05486e-12
9.64916e-12
2.05468e-12
-8.26201e-13
-3.81674e-13
-2.93388e-13
2.21762e-12
2.64782e-12
3.16554e-12
-1.36237e-11
-4.72053e-11
-1.36228e-11
3.16562e-12
2.64776e-12
2.21763e-12
-1.51653e-11
-1.47308e-11
-1.63463e-11
6.72146e-11
2.25576e-10
6.72098e-11
-1.63471e-11
-1.47307e-11
-1.51652e-11
8.81982e-11
7.59187e-11
8.68207e-11
-3.15076e-10
-1.10067e-09
-3.15052e-10
8.68238e-11
7.59178e-11
8.81983e-11
-4.86755e-10
-3.80205e-10
-4.82049e-10
1.43543e-09
5.45943e-09
1.43532e-09
-4.82063e-10
-3.80201e-10
-4.86756e-10
2.6029e-09
1.85635e-09
2.67627e-09
-6.4156e-09
-2.74037e-08
-6.41506e-09
2.67632e-09
1.85633e-09
2.60292e-09
-1.37064e-08
-8.90121e-09
-1.47962e-08
2.79292e-08
1.38561e-07
2.79266e-08
-1.47964e-08
-8.9011e-09
-1.37065e-08
7.14181e-08
4.1808e-08
8.10944e-08
-1.17014e-07
-7.03966e-07
-1.17001e-07
8.10948e-08
4.18075e-08
7.14186e-08
-3.69311e-07
-1.9161e-07
-4.40359e-07
4.60085e-07
3.58735e-06
4.60024e-07
-4.40359e-07
-1.91607e-07
-3.69314e-07
1.89588e-06
8.49413e-07
2.36728e-06
-1.60381e-06
-1.83154e-05
-1.60352e-06
2.36727e-06
8.49401e-07
1.8959e-06
-9.64287e-06
-3.59429e-06
-1.25988e-05
4.05189e-06
9.35566e-05
4.05066e-06
-1.25987e-05
-3.59423e-06
-9.64296e-06
4.79553e-05
1.39126e-05
6.62096e-05
3.65261e-06
-0.000477296
3.65764e-06
6.62089e-05
1.39124e-05
4.79557e-05
-0.000227741
-4.4572e-05
-0.000340593
-0.000177116
0.00241273
-0.000177134
-0.000340589
-4.45713e-05
-0.000227742
0.000954933
7.04478e-05
0.00166164
0.00214667
-0.011686
0.00214673
0.00166162
7.04462e-05
0.000954938
-0.00250187
0.000485266
-0.00679184
-0.0229969
0.0420627
-0.022997
-0.00679175
0.000485265
-0.00250189
-0.00975227
-0.0046359
0.00939228
0.223767
0.593548
0.223766
0.00939206
-0.00463587
-0.00975228
0.00861934
-0.00762796
0.0763013
0.506321
0.876096
0.506319
0.0763004
-0.00762793
0.00861938
0.0342734
-0.00378577
0.136411
0.644719
0.956159
0.644717
0.136409
-0.00378578
0.0342735
0.0546252
0.00427642
0.17508
0.697277
0.969207
0.697275
0.175078
0.00427635
0.0546254
0.0687776
0.0139823
0.198496
0.711752
0.961057
0.711749
0.198493
0.0139821
0.0687779
0.0789665
0.0241206
0.213842
0.711151
0.94636
0.711148
0.213839
0.0241204
0.0789668
0.0870936
0.0342683
0.225331
0.705019
0.92989
0.705016
0.225328
0.0342681
0.087094
0.0942884
0.0443335
0.235043
0.696759
0.912852
0.696755
0.235039
0.0443332
0.0942887
0.101196
0.0543657
0.24389
0.687418
0.895235
0.687415
0.243887
0.0543654
0.101196
0.108263
0.0645348
0.252335
0.676872
0.876351
0.676869
0.252332
0.0645344
0.108263
0.115893
0.0751128
0.260439
0.663689
0.854106
0.663686
0.260436
0.0751124
0.115893
0.124477
0.0868128
0.268497
0.645167
0.824791
0.645165
0.268495
0.0868123
0.124478
0.134064
0.0997303
0.272422
0.610491
0.774745
0.610489
0.27242
0.0997298
0.134064
0.143663
0.117006
0.278444
0.557047
0.699486
0.557045
0.278442
0.117006
0.143663
0.149156
0.129306
0.224286
0.3818
0.467516
0.381799
0.224286
0.129306
0.149156
0.142098
0.136804
0.209034
0.321927
0.391433
0.321927
0.209033
0.136803
0.142098
0.107046
0.11376
0.255162
0.49284
0.593065
0.492839
0.255161
0.113759
0.107046
0.0432501
0.0350255
0.171089
0.588513
0.878025
0.588512
0.171088
0.0350254
0.0432501
2.58961e-13
2.76029e-13
4.11376e-13
2.11161e-13
-1.15523e-12
2.11174e-13
4.11368e-13
2.76021e-13
2.58954e-13
-1.1789e-14
-2.93401e-13
-9.95316e-13
3.04984e-12
1.45952e-11
3.04962e-12
-9.95336e-13
-2.93389e-13
-1.17884e-14
8.06816e-13
2.21769e-12
2.49665e-12
-3.05246e-11
-8.91452e-11
-3.05231e-11
2.49688e-12
2.21763e-12
8.06798e-13
-5.27841e-12
-1.51656e-11
-1.08588e-11
1.98957e-10
4.94462e-10
1.98947e-10
-1.08611e-11
-1.51653e-11
-5.27829e-12
2.99557e-11
8.82004e-11
4.20593e-11
-1.14848e-09
-2.66564e-09
-1.14843e-09
4.20727e-11
8.81984e-11
2.99551e-11
-1.52875e-10
-4.86767e-10
-2.39224e-10
6.21916e-09
1.41508e-08
6.21891e-09
-2.39297e-10
-4.86756e-10
-1.52871e-10
7.26491e-10
2.60298e-09
1.63496e-09
-3.26583e-08
-7.45533e-08
-3.26571e-08