/*--------------------------------*- C++ -*----------------------------------*\
  =========                 |
  \\      /  F ield         | OpenFOAM: The Open Source CFD Toolbox
   \\    /   O peration     | Website:  https://openfoam.org
    \\  /    A nd           | Version:  6
     \\/     M anipulation  |
\*---------------------------------------------------------------------------*/
FoamFile
{
    version     2.0;
    format      ascii;
    class       volScalarField;
    location    "0.8";
    object      T;
}
// * * * * * * * * * * * * * * * * * * * * * * * * * * * * * * * * * * * * * //

dimensions      [0 0 0 1 0 0 0];

internalField   nonuniform List<scalar> 
3029
(
293.15
293.15
293.151
293.145
293.198
293.145
293.151
293.15
293.15
293.15
293.151
293.151
293.146
293.206
293.146
293.151
293.15
293.15
293.151
293.151
293.153
293.147
293.232
293.146
293.153
293.151
293.151
293.151
293.153
293.156
293.149
293.284
293.148
293.155
293.152
293.151
293.152
293.155
293.159
293.156
293.382
293.155
293.158
293.153
293.152
293.154
293.157
293.165
293.178
293.562
293.176
293.163
293.155
293.154
293.158
293.163
293.178
293.235
293.886
293.233
293.176
293.16
293.157
293.166
293.176
293.21
293.372
294.455
293.37
293.207
293.172
293.165
293.19
293.21
293.286
293.675
295.427
293.673
293.283
293.206
293.188
293.251
293.298
293.469
294.296
297.029
294.294
293.466
293.293
293.249
293.406
293.512
293.883
295.496
299.603
295.494
293.879
293.507
293.403
293.773
294.008
294.781
297.657
303.495
297.654
294.776
294.002
293.77
294.578
295.05
296.504
301.387
309.557
301.383
296.499
295.043
294.574
296.16
297.084
299.987
307.729
317.74
307.725
299.981
297.077
296.155
299.01
300.704
305.175
316.465
330.802
316.461
305.169
300.696
299.005
303.357
305.783
315.894
346.325
376.26
346.321
315.887
305.775
303.351
309.043
314.783
342.425
386.73
399.55
386.728
342.418
314.773
309.036
316.537
328.054
366.793
399.76
400.846
399.759
366.787
328.045
316.53
325.993
341.937
380.907
402.119
400.872
402.118
380.902
341.927
325.985
337.206
355.503
389.882
401.907
400.565
401.906
389.877
355.493
337.196
350.042
369.225
397.349
401.403
400.126
401.402
397.344
369.214
350.032
364.465
383.618
404.841
401.202
399.681
401.202
404.835
383.606
364.454
380.444
398.944
412.882
401.478
399.31
401.477
412.876
398.932
380.433
397.895
415.248
421.586
402.277
399.064
402.276
421.58
415.235
397.883
416.668
432.433
430.906
403.613
398.986
403.612
430.899
432.421
416.655
436.537
450.305
440.708
405.484
399.114
405.483
440.701
450.293
436.523
457.209
468.588
450.822
407.934
399.538
407.933
450.815
468.575
457.195
478.322
486.913
460.956
410.893
400.191
410.891
460.949
486.9
478.308
499.448
504.887
471.327
415.285
402.132
415.284
471.321
504.874
499.433
520.17
522.123
481.134
419.712
403.426
419.71
481.128
522.111
520.154
539.99
538.581
495.336
434.657
416.742
434.655
495.33
538.569
539.974
560.455
555.185
508.697
444.511
423.428
444.509
508.69
555.174
560.439
584.963
577.472
524.65
440.853
409.022
440.851
524.643
577.46
584.945
640.659
635.954
595.228
488.907
413.758
488.902
595.218
635.939
640.64
293.15
293.151
293.151
293.159
293.289
293.158
293.151
293.151
293.15
293.15
293.152
293.152
293.16
293.303
293.16
293.151
293.151
293.15
293.151
293.153
293.154
293.164
293.347
293.163
293.153
293.152
293.151
293.153
293.154
293.158
293.172
293.443
293.171
293.157
293.153
293.152
293.154
293.156
293.165
293.197
293.641
293.195
293.163
293.154
293.153
293.157
293.16
293.179
293.264
294.02
293.263
293.177
293.157
293.155
293.163
293.17
293.212
293.431
294.7
293.429
293.209
293.166
293.159
293.176
293.194
293.289
293.795
295.855
293.792
293.285
293.19
293.172
293.21
293.258
293.469
294.522
297.723
294.52
293.465
293.253
293.205
293.298
293.414
293.871
295.867
300.607
295.864
293.866
293.408
293.292
293.512
293.774
294.702
298.186
304.894
298.183
294.697
293.767
293.506
294.008
294.55
296.312
301.964
310.998
301.96
296.306
294.542
294.001
295.049
296.091
299.174
307.716
319.377
307.712
299.168
296.083
295.042
297.083
298.902
304.025
316.368
330.508
316.363
304.017
298.893
297.075
300.703
303.655
311.439
327.247
342.827
327.241
311.431
303.645
300.694
305.783
310.584
321.956
345.057
365.657
345.051
321.947
310.574
305.773
314.782
320.09
338.558
372.167
389.966
372.162
338.549
320.079
314.771
328.053
332.383
357.464
390.373
398.208
390.369
357.455
332.37
328.042
341.935
346.246
373.757
399.137
399.772
399.135
373.748
346.233
341.923
355.502
360.958
388.008
404.622
400.451
404.619
387.999
360.945
355.49
369.224
376.442
401.655
409.769
401.737
409.766
401.645
376.428
369.211
383.616
392.791
415.49
415.429
403.838
415.426
415.48
392.776
383.603
398.943
410.046
429.791
421.759
406.732
421.756
429.78
410.031
398.929
415.246
428.148
444.573
428.75
410.396
428.746
444.562
428.132
415.232
432.432
446.966
459.755
436.392
414.872
436.389
459.744
446.95
432.418
450.304
466.31
475.214
444.752
420.301
444.749
475.204
466.294
450.29
468.587
485.986
490.946
454.208
427.21
454.204
490.936
485.97
468.573
486.912
505.612
506.67
465.278
436.387
465.274
506.659
505.597
486.897
504.886
525.412
524.629
481.977
452.728
481.973
524.619
525.397
504.872
522.123
542.849
538.203
501.3
474.059
501.296
538.192
542.835
522.108
538.581
564.258
591.521
580.112
566.383
580.108
591.512
564.245
538.567
555.185
576.309
610.185
610.067
599.959
610.063
610.176
576.296
555.172
577.472
584.461
584.42
553.627
535.599
553.624
584.411
584.448
577.458
635.954
637.084
611.23
512.742
435.769
512.737
611.219
637.07
635.939
293.151
293.151
293.184
293.068
293.234
293.067
293.183
293.151
293.151
293.151
293.152
293.185
293.077
293.362
293.076
293.184
293.151
293.151
293.153
293.154
293.189
293.108
293.686
293.107
293.187
293.153
293.152
293.155
293.158
293.194
293.205
294.315
293.203
293.192
293.156
293.154
293.159
293.165
293.21
293.444
295.393
293.442
293.208
293.162
293.157
293.165
293.179
293.261
293.946
297.103
293.943
293.258
293.176
293.162
293.177
293.211
293.398
294.884
299.666
294.882
293.395
293.207
293.174
293.209
293.288
293.719
296.498
303.34
296.495
293.715
293.283
293.205
293.285
293.468
294.389
299.099
308.421
299.095
294.385
293.463
293.28
293.468
293.869
295.667
303.066
315.232
303.062
295.662
293.863
293.463
293.882
294.701
297.922
308.83
324.098
308.826
297.916
294.694
293.875
294.779
296.31
301.634
316.837
335.311
316.832
301.628
296.303
294.773
296.503
299.173
307.356
327.44
348.952
327.434
307.348
299.165
296.495
299.986
304.023
315.637
340.845
364.99
340.838
315.629
304.014
299.977
305.173
311.437
326.825
356.531
381.665
356.524
326.816
311.427
305.164
315.892
321.954
340.564
373.067
397.191
373.06
340.554
321.943
315.882
342.422
338.556
355.979
389.846
409.494
389.838
355.968
338.544
342.412
366.791
357.461
372.285
405.847
418.259
405.839
372.273
357.45
366.783
380.905
373.755
388.877
420.707
426.466
420.699
388.865
373.743
380.898
389.881
388.006
405.752
435.285
435.784
435.277
405.739
387.994
389.874
397.347
401.652
423.085
450.226
446.604
450.219
423.071
401.64
397.34
404.839
415.488
440.94
465.651
458.613
465.643
440.926
415.475
404.832
412.881
429.789
459.253
481.458
471.45
481.45
459.239
429.776
412.873
421.585
444.571
477.902
497.519
484.898
497.511
477.888
444.558
421.577
430.905
459.753
496.757
513.759
498.889
513.751
496.743
459.74
430.896
440.707
475.214
515.721
530.243
513.596
530.235
515.707
475.2
440.698
450.821
490.946
534.872
547.342
529.658
547.334
534.858
490.933
450.813
460.956
506.67
554.246
566.017
548.651
566.01
554.232
506.657
460.947
471.328
524.63
576.477
589.36
574.853
589.353
576.464
524.617
471.319
481.136
538.204
597.315
622.854
616.639
622.847
597.302
538.191
481.127
495.338
591.523
704.473
727.66
735.568
727.655
704.466
591.512
495.329
508.699
610.187
610.177
508.69
524.652
584.422
606.561
600.588
587.26
600.583
606.552
584.412
524.643
595.229
611.231
617.229
569.263
515.238
569.257
617.218
611.22
595.219
624.616
566.945
499.742
566.939
624.604
630.36
570.144
498.399
570.137
630.348
635.17
573.93
500.511
573.923
635.158
639.551
577.549
503.397
577.542
639.539
643.7
580.996
506.452
580.989
643.689
647.699
584.332
509.543
584.325
647.687
651.576
587.594
512.644
587.587
651.564
655.345
590.804
515.762
590.797
655.333
658.993
593.942
518.857
593.935
658.982
662.621
597.135
522.095
597.128
662.609
665.735
599.831
524.772
599.824
665.723
670.906
604.614
529.898
604.607
670.894
293.145
293.158
293.068
294.898
303.898
294.897
293.066
293.157
293.145
293.146
293.16
293.077
295.19
304.811
295.188
293.075
293.158
293.145
293.146
293.163
293.108
295.886
306.777
295.884
293.105
293.161
293.145
293.148
293.171
293.204
297.123
309.901
297.121
293.202
293.169
293.147
293.155
293.195
293.443
299.079
314.276
299.076
293.44
293.193
293.153
293.176
293.263
293.944
301.973
320.021
301.97
293.941
293.259
293.174
293.233
293.429
294.883
306.061
327.274
306.057
294.879
293.425
293.23
293.37
293.792
296.497
311.628
336.195
311.624
296.492
293.788
293.366
293.673
294.52
299.097
318.975
346.946
318.97
299.092
294.515
293.668
294.294
295.864
303.064
328.398
359.677
328.393
303.058
295.858
294.288
295.494
298.183
308.828
340.158
374.493
340.152
308.821
298.177
295.488
297.654
301.961
316.835
354.42
391.412
354.414
316.828
301.954
297.648
301.383
307.712
327.437
371.163
410.261
371.155
327.429
307.705
301.376
307.725
316.364
340.842
390.01
430.556
390.002
340.833
316.355
307.718
316.461
327.243
356.529
410.045
451.221
410.036
356.519
327.233
316.452
346.321
345.052
373.064
429.415
470.176
429.406
373.053
345.041
346.311
386.729
372.163
389.842
446.168
485.083
446.158
389.83
372.154
386.725
399.76
390.37
405.843
461.569
497.86
461.558
405.831
390.364
399.759
402.119
399.135
420.703
477.586
511.591
477.575
420.691
399.13
402.119
401.907
404.621
435.281
494.567
526.662
494.556
435.269
404.616
401.907
401.403
409.767
450.223
512.275
542.672
512.264
450.21
409.762
401.403
401.203
415.428
465.648
530.376
559.147
530.365
465.635
415.423
401.202
401.479
421.758
481.455
548.604
575.753
548.593
481.442
421.753
401.478
402.278
428.749
497.516
566.745
592.266
566.734
497.503
428.743
402.276
403.614
436.392
513.757
584.712
608.604
584.7
513.744
436.386
403.612
405.485
444.753
530.241
602.543
624.829
602.532
530.228
444.747
405.483
407.936
454.209
547.341
620.5
641.228
620.49
547.328
454.202
407.934
410.894
465.28
566.018
639.376
658.581
639.366
566.005
465.273
410.892
415.288
481.979
589.361
660.793
678.51
660.784
589.349
481.972
415.285
419.715
501.303
622.855
690.987
705.934
690.98
622.843
501.295
419.712
434.66
580.115
727.66
742.14
750.834
742.137
727.654
580.108
434.657
444.515
610.071
610.063
444.512
440.857
553.631
600.592
624.957
623.534
624.951
600.585
553.625
440.854
488.911
512.746
569.266
611.837
604.522
611.83
569.259
512.74
488.906
566.949
605.617
595.341
605.611
566.941
570.147
604.884
593.072
604.877
570.139
573.933
606.372
593.712
606.365
573.925
577.553
608.624
595.395
608.617
577.545
581
611.095
597.42
611.088
580.991
584.336
613.602
599.541
613.595
584.328
587.598
616.084
601.674
616.077
587.589
590.808
618.524
603.796
618.518
590.799
593.946
620.903
605.881
620.896
593.938
597.138
623.3
608.013
623.293
597.13
599.835
625.342
609.81
625.336
599.827
604.617
628.865
613.038
628.858
604.609
293.198
293.287
293.232
303.896
334.244
303.894
293.23
293.286
293.198
293.205
293.302
293.36
304.809
335.965
304.806
293.358
293.3
293.204
293.23
293.345
293.684
306.775
339.433
306.772
293.682
293.343
293.229
293.282
293.441
294.312
309.898
344.574
309.895
294.309
293.439
293.28
293.38
293.638
295.39
314.274
351.274
314.27
295.387
293.636
293.378
293.559
294.016
297.1
320.018
359.468
320.014
297.097
294.013
293.557
293.883
294.696
299.662
327.271
369.147
327.267
299.659
294.693
293.88
294.452
295.851
303.336
336.192
380.352
336.187
303.332
295.847
294.448
295.424
297.718
308.417
346.942
393.146
346.937
308.412
297.714
295.42
297.025
300.603
315.228
359.673
407.595
359.667
315.222
300.598
297.02
299.599
304.889
324.093
374.489
423.731
374.483
324.087
304.883
299.594
303.49
310.992
335.306
391.408
441.516
391.401
335.299
310.986
303.485
309.552
319.371
348.947
410.257
460.783
410.25
348.939
319.364
309.546
317.735
330.502
364.984
430.552
481.132
430.544
364.976
330.495
317.728
330.796
342.82
381.659
451.217
501.841
451.208
381.65
342.812
330.788
376.257
365.651
397.185
470.172
521.697
470.163
397.174
365.642
376.251
399.55
389.964
409.488
485.079
539.246
485.069
409.478
389.96
399.549
400.846
398.208
418.254
497.855
554.783
497.845
418.246
398.206
400.846
400.872
399.771
426.462
511.586
569.595
511.576
426.454
399.771
400.872
400.565
400.451
435.78
526.657
584.252
526.647
435.772
400.45
400.565
400.126
401.737
446.6
542.668
598.876
542.657
446.592
401.736
400.126
399.682
403.838
458.61
559.143
613.433
559.132
458.601
403.836
399.681
399.31
406.732
471.447
575.749
627.861
575.739
471.438
406.73
399.31
399.065
410.397
484.895
592.263
642.07
592.253
484.886
410.394
399.065
398.987
414.873
498.887
608.601
656.013
608.591
498.878
414.87
398.987
399.115
420.302
513.595
624.827
669.687
624.817
513.585
420.3
399.114
399.54
427.212
529.657
641.226
683.166
641.216
529.648
427.209
399.539
400.193
436.39
548.651
658.58
696.711
658.571
548.641
436.386
400.193
402.135
452.73
574.854
678.51
711.016
678.501
574.845
452.726
402.134
403.43
474.062
616.641
705.935
728.015
705.928
616.631
474.057
403.429
416.745
566.386
735.57
750.835
760.777
750.832
735.564
566.381
416.744
423.432
599.963
599.958
423.431
409.027
535.603
587.265
623.538
643.309
623.534
587.261
535.6
409.026
413.763
435.774
515.243
604.526
642.981
604.522
515.24
435.772
413.762
499.747
595.346
642.671
595.341
499.744
498.405
593.077
643.033
593.072
498.401
500.516
593.717
643.884
593.711
500.513
503.403
595.4
644.956
595.395
503.399
506.457
597.425
646.102
597.42
506.453
509.548
599.546
647.26
599.541
509.545
512.65
601.679
648.404
601.674
512.646
515.768
603.801
649.531
603.797
515.764
518.862
605.886
650.632
605.882
518.859
522.101
608.018
651.741
608.014
522.097
524.778
609.815
652.703
609.811
524.774
529.904
613.043
654.335
613.039
529.9
293.145
293.157
293.066
294.895
303.892
294.894
293.065
293.157
293.145
293.145
293.158
293.074
295.186
304.805
295.185
293.074
293.158
293.145
293.145
293.161
293.105
295.882
306.771
295.881
293.104
293.161
293.145
293.147
293.169
293.201
297.119
309.894
297.117
293.2
293.168
293.146
293.153
293.193
293.44
299.074
314.269
299.072
293.438
293.191
293.152
293.174
293.26
293.941
301.967
320.012
301.965
293.939
293.258
293.173
293.231
293.425
294.878
306.054
327.265
306.052
294.876
293.423
293.229
293.367
293.789
296.492
311.62
336.185
311.618
296.49
293.786
293.365
293.669
294.516
299.092
318.966
346.935
318.964
299.089
294.513
293.667
294.29
295.86
303.058
328.389
359.665
328.386
303.054
295.856
294.287
295.49
298.178
308.821
340.148
374.481
340.144
308.817
298.174
295.487
297.65
301.955
316.827
354.409
391.399
354.405
316.823
301.951
297.646
301.378
307.706
327.429
371.15
410.247
371.146
327.424
307.701
301.374
307.72
316.357
340.832
389.996
430.542
389.991
340.827
316.352
307.715
316.455
327.235
356.518
410.031
451.206
410.025
356.512
327.23
316.45
346.315
345.045
373.053
429.4
470.16
429.395
373.046
345.038
346.309
386.726
372.157
389.831
446.153
485.066
446.146
389.824
372.151
386.724
399.758
390.366
405.833
461.553
497.842
461.546
405.825
390.362
399.758
402.118
399.132
420.693
477.569
511.573
477.562
420.685
399.129
402.119
401.907
404.617
435.271
494.551
526.645
494.544
435.264
404.614
401.907
401.403
409.764
450.213
512.259
542.655
512.252
450.205
409.761
401.403
401.202
415.425
465.638
530.36
559.13
530.353
465.63
415.421
401.202
401.478
421.755
481.445
548.589
575.737
548.581
481.437
421.751
401.478
402.277
428.745
497.507
566.73
592.252
566.723
497.498
428.741
402.276
403.613
436.388
513.747
584.697
608.59
584.69
513.739
436.384
403.612
405.484
444.749
530.232
602.53
624.816
602.523
530.223
444.744
405.483
407.935
454.205
547.332
620.488
641.217
620.481
547.323
454.2
407.933
410.893
465.276
566.009
639.365
658.572
639.358
566
465.271
410.892
415.286
481.975
589.353
660.784
678.502
660.777
589.344
481.97
415.285
419.713
501.299
622.848
690.981
705.929
690.975
622.839
501.293
419.712
434.658
580.111
727.657
742.138
750.833
742.135
727.652
580.106
434.656
444.513
610.066
610.062
444.511
440.855
553.628
600.588
624.956
623.538
624.952
600.584
553.624
440.853
488.907
512.742
569.262
611.835
604.525
611.831
569.258
512.738
488.904
566.944
605.616
595.344
605.612
566.939
570.143
604.882
593.076
604.878
570.138
573.928
606.37
593.715
606.367
573.924
577.548
608.622
595.398
608.619
577.544
580.995
611.094
597.424
611.091
580.991
584.331
613.601
599.545
613.599
584.328
587.593
616.082
601.678
616.081
587.59
590.803
618.523
603.801
618.522
590.8
593.941
620.902
605.885
620.901
593.939
597.134
623.299
608.018
623.299
597.131
599.83
625.341
609.815
625.341
599.828
604.613
628.864
613.043
628.865
604.611
293.151
293.15
293.182
293.065
293.23
293.065
293.182
293.15
293.151
293.151
293.151
293.183
293.074
293.358
293.073
293.183
293.15
293.151
293.152
293.152
293.186
293.104
293.681
293.104
293.186
293.152
293.152
293.154
293.155
293.191
293.2
294.309
293.2
293.19
293.155
293.154
293.157
293.162
293.206
293.439
295.386
293.438
293.206
293.161
293.156
293.162
293.175
293.256
293.939
297.096
293.939
293.255
293.174
293.161
293.174
293.206
293.393
294.877
299.658
294.876
293.392
293.205
293.173
293.204
293.282
293.713
296.49
303.331
296.489
293.711
293.281
293.203
293.28
293.462
294.382
299.09
308.411
299.089
294.38
293.46
293.279
293.463
293.862
295.659
303.056
315.221
303.054
295.657
293.86
293.461
293.875
294.693
297.913
308.819
324.086
308.817
297.911
294.691
293.873
294.773
296.302
301.624
316.825
335.298
316.823
301.622
296.299
294.77
296.495
299.163
307.345
327.426
348.938
327.424
307.342
299.16
296.493
299.977
304.013
315.625
340.83
364.974
340.827
315.622
304.009
299.974
305.165
311.426
326.812
356.515
381.648
356.512
326.808
311.422
305.161
315.882
321.943
340.55
373.049
397.173
373.046
340.545
321.938
315.878
342.413
338.543
355.964
389.827
409.476
389.823
355.959
338.538
342.409
366.784
357.45
372.269
405.828
418.245
405.825
372.264
357.445
366.78
380.899
373.743
388.86
420.688
426.453
420.685
388.855
373.738
380.896
389.874
387.995
405.734
435.266
435.771
435.263
405.729
387.989
389.871
397.341
401.641
423.067
450.208
446.592
450.205
423.061
401.635
397.338
404.833
415.476
440.922
465.633
458.601
465.63
440.916
415.47
404.83
412.874
429.777
459.236
481.441
471.438
481.437
459.229
429.771
412.871
421.578
444.559
477.885
497.502
484.886
497.499
477.878
444.553
421.574
430.898
459.742
496.74
513.743
498.879
513.739
496.734
459.735
430.894
440.7
475.202
515.705
530.228
513.586
530.224
515.698
475.196
440.696
450.814
490.935
534.857
547.328
529.649
547.325
534.85
490.928
450.81
460.949
506.659
554.231
566.005
548.643
566.002
554.225
506.653
460.945
471.321
524.62
576.464
589.35
574.847
589.346
576.458
524.613
471.317
481.129
538.194
597.304
622.845
616.634
622.842
597.297
538.188
481.125
495.332
591.515
704.469
727.656
735.566
727.654
704.464
591.509
495.328
508.693
610.18
610.176
508.689
524.646
584.415
606.556
600.589
587.264
600.586
606.552
584.411
524.641
595.223
611.225
617.224
569.263
515.243
569.261
617.219
611.22
595.219
624.61
566.945
499.747
566.942
624.606
630.355
570.144
498.404
570.141
630.35
635.165
573.929
500.516
573.927
635.16
639.546
577.549
503.402
577.547
639.541
643.695
580.996
506.457
580.994
643.69
647.694
584.332
509.548
584.331
647.689
651.571
587.594
512.65
587.593
651.566
655.34
590.804
515.768
590.803
655.335
658.988
593.943
518.862
593.942
658.984
662.616
597.135
522.101
597.134
662.612
665.73
599.831
524.778
599.831
665.726
670.902
604.614
529.904
604.614
670.897
293.15
293.151
293.15
293.157
293.286
293.157
293.15
293.151
293.15
293.15
293.151
293.151
293.158
293.3
293.158
293.15
293.151
293.15
293.151
293.151
293.152
293.161
293.342
293.16
293.152
293.151
293.15
293.151
293.152
293.155
293.168
293.438
293.168
293.155
293.151
293.151
293.152
293.153
293.161
293.192
293.635
293.191
293.161
293.152
293.152
293.154
293.156
293.174
293.258
294.013
293.258
293.174
293.155
293.153
293.159
293.164
293.206
293.424
294.692
293.423
293.205
293.163
293.158
293.171
293.188
293.282
293.787
295.847
293.786
293.281
293.187
293.169
293.204
293.251
293.461
294.513
297.713
294.513
293.46
293.249
293.203
293.291
293.405
293.861
295.857
300.597
295.856
293.86
293.404
293.289
293.504
293.764
294.692
298.175
304.882
298.174
294.691
293.762
293.503
293.999
294.539
296.301
301.952
310.985
301.951
296.299
294.537
293.997
295.04
296.08
299.162
307.703
319.363
307.701
299.16
296.078
295.038
297.074
298.89
304.012
316.353
330.494
316.352
304.01
298.888
297.071
300.692
303.642
311.425
327.231
342.811
327.229
311.422
303.639
300.69
305.771
310.571
321.941
345.04
365.641
345.038
321.938
310.567
305.768
314.77
320.076
338.541
372.153
389.959
372.151
338.539
320.072
314.766
328.041
332.367
357.448
390.363
398.206
390.362
357.445
332.363
328.037
341.923
346.229
373.741
399.13
399.771
399.129
373.738
346.225
341.919
355.489
360.941
387.992
404.615
400.45
404.615
387.989
360.937
355.485
369.21
376.425
401.639
409.762
401.736
409.761
401.636
376.42
369.206
383.603
392.774
415.474
415.423
403.837
415.422
415.47
392.769
383.598
398.929
410.028
429.775
421.753
406.731
421.751
429.771
410.023
398.924
415.232
428.13
444.557
428.744
410.395
428.742
444.554
428.125
415.227
432.418
446.948
459.74
436.387
414.871
436.385
459.736
446.943
432.413
450.291
466.293
475.2
444.747
420.301
444.746
475.196
466.288
450.285
468.574
485.97
490.933
454.203
427.21
454.202
490.929
485.965
468.569
486.899
505.598
506.658
465.274
436.388
465.273
506.654
505.592
486.894
504.874
525.398
524.619
481.974
452.729
481.972
524.615
525.393
504.869
522.112
542.837
538.193
501.298
474.06
501.296
538.19
542.832
522.106
538.571
564.248
591.515
580.11
566.384
580.108
591.511
564.244
538.566
555.176
576.3
610.181
610.066
599.961
610.064
610.177
576.296
555.172
577.463
584.453
584.416
553.628
535.603
553.627
584.413
584.449
577.458
635.945
637.076
611.225
512.743
435.774
512.742
611.222
637.073
635.943
293.15
293.15
293.151
293.145
293.197
293.145
293.151
293.15
293.15
293.15
293.15
293.151
293.145
293.204
293.145
293.151
293.15
293.15
293.15
293.151
293.152
293.145
293.229
293.145
293.152
293.15
293.15
293.151
293.151
293.154
293.146
293.28
293.146
293.154
293.151
293.15
293.152
293.152
293.156
293.152
293.377
293.152
293.156
293.152
293.151
293.153
293.154
293.161
293.173
293.556
293.173
293.161
293.153
293.152
293.156
293.158
293.173
293.229
293.88
293.229
293.173
293.158
293.155
293.164
293.17
293.204
293.365
294.448
293.365
293.203
293.17
293.162
293.186
293.204
293.279
293.667
295.419
293.667
293.279
293.203
293.185
293.247
293.291
293.461
294.288
297.02
294.287
293.461
293.289
293.245
293.402
293.504
293.874
295.487
299.594
295.487
293.873
293.503
293.399
293.768
293.999
294.771
297.647
303.485
297.646
294.77
293.997
293.766
294.572
295.04
296.494
301.375
309.546
301.375
296.493
295.038
294.569
296.153
297.073
299.976
307.717
317.727
307.716
299.974
297.071
296.15
299.003
300.692
305.163
316.451
330.788
316.45
305.161
300.69
299
303.349
305.771
315.88
346.311
376.251
346.309
315.878
305.768
303.345
309.034
314.769
342.411
386.725
399.549
386.724
342.409
314.767
309.03
316.527
328.04
366.782
399.759
400.846
399.758
366.78
328.037
316.524
325.982
341.922
380.897
402.119
400.872
402.119
380.896
341.919
325.979
337.194
355.488
389.873
401.907
400.565
401.907
389.872
355.485
337.19
350.03
369.209
397.34
401.403
400.126
401.403
397.338
369.206
350.026
364.452
383.602
404.832
401.202
399.682
401.202
404.83
383.598
364.448
380.43
398.928
412.873
401.478
399.31
401.478
412.871
398.924
380.426
397.882
415.231
421.577
402.277
399.065
402.277
421.575
415.228
397.877
416.653
432.417
430.897
403.613
398.987
403.613
430.895
432.413
416.649
436.522
450.29
440.699
405.484
399.115
405.484
440.697
450.286
436.517
457.194
468.573
450.813
407.935
399.54
407.934
450.811
468.569
457.19
478.307
486.898
460.948
410.894
400.194
410.893
460.946
486.894
478.302
499.433
504.873
471.32
415.287
402.135
415.286
471.319
504.87
499.428
520.155
522.111
481.129
419.714
403.43
419.714
481.127
522.107
520.151
539.975
538.57
495.331
434.659
416.746
434.658
495.33
538.567
539.971
560.442
555.175
508.693
444.514
423.433
444.513
508.691
555.172
560.437
584.949
577.462
524.645
440.856
409.028
440.855
524.644
577.458
584.944
640.646
635.945
595.224
488.909
413.765
488.907
595.221
635.943
640.646
)
;

boundaryField
{
    injectionXMinus
    {
        type            uniformFixedValue;
        uniformValue    uniform 400;
        value           uniform 400;
    }
    injectionXPlus
    {
        type            uniformFixedValue;
        uniformValue    uniform 400;
        value           uniform 400;
    }
    injectionYMinus
    {
        type            uniformFixedValue;
        uniformValue    uniform 400;
        value           uniform 400;
    }
    injectionYPlus
    {
        type            uniformFixedValue;
        uniformValue    uniform 400;
        value           uniform 400;
    }
    inletXMinus
    {
        type            uniformFixedValue;
        uniformValue    uniform 293.15;
        value           uniform 293.15;
    }
    inletXPlus
    {
        type            uniformFixedValue;
        uniformValue    uniform 293.15;
        value           uniform 293.15;
    }
    inletYMinus
    {
        type            uniformFixedValue;
        uniformValue    uniform 293.15;
        value           uniform 293.15;
    }
    inletYPlus
    {
        type            uniformFixedValue;
        uniformValue    uniform 293.15;
        value           uniform 293.15;
    }
    outlet
    {
        type            zeroGradient;
    }
    valve
    {
        type            zeroGradient;
    }
    walls
    {
        type            zeroGradient;
    }
}


// ************************************************************************* //
