/*--------------------------------*- C++ -*----------------------------------*\
  =========                 |
  \\      /  F ield         | OpenFOAM: The Open Source CFD Toolbox
   \\    /   O peration     | Website:  https://openfoam.org
    \\  /    A nd           | Version:  6
     \\/     M anipulation  |
\*---------------------------------------------------------------------------*/
FoamFile
{
    version     2.0;
    format      ascii;
    class       volScalarField;
    location    "0.9";
    object      T;
}
// * * * * * * * * * * * * * * * * * * * * * * * * * * * * * * * * * * * * * //

dimensions      [0 0 0 1 0 0 0];

internalField   nonuniform List<scalar> 
3029
(
277.841
271.498
303.984
245.904
310.214
245.904
303.984
271.498
277.841
314.604
319.569
341.93
271.3
334.605
271.3
341.93
319.569
314.604
255.96
262.168
295.171
265.38
320.368
265.38
295.171
262.168
255.96
258.452
254.161
289.82
265.354
307.643
265.354
289.819
254.16
258.452
267.584
256.916
289.11
267.073
300.247
267.073
289.109
256.915
267.583
273.722
260.481
288.748
268.779
296.175
268.779
288.747
260.48
273.721
276.885
263.048
288.387
270.207
293.795
270.206
288.385
263.046
276.883
278.273
264.713
288.021
271.408
292.248
271.407
288.018
264.711
278.272
278.743
265.816
287.66
272.456
291.13
272.455
287.657
265.813
278.741
278.762
266.601
287.314
273.399
290.248
273.397
287.31
266.598
278.76
278.561
267.205
286.993
274.287
289.608
274.286
286.989
267.201
278.558
278.241
267.691
286.693
275.129
288.959
275.128
286.689
267.686
278.239
277.828
268.089
286.389
276.248
290.002
276.247
286.385
268.084
277.824
277.329
268.372
285.926
276.87
287.248
276.868
285.921
268.367
277.325
276.878
268.641
285.075
280.652
318.631
280.65
285.07
268.635
276.874
276.862
268.924
281.907
266.556
262.697
266.554
281.902
268.919
276.857
278.931
273.121
281.609
244.244
415.878
244.242
281.604
273.115
278.926
282.048
278.532
278.708
236.35
487.698
236.347
278.703
278.526
282.042
283.623
280.163
271.82
232.649
463.289
232.647
271.815
280.156
283.618
283.988
280.085
267.827
236.965
474.782
236.962
267.822
280.078
283.982
283.866
279.641
266.158
242.458
478.259
242.455
266.153
279.634
283.86
283.63
279.226
265.592
247.402
475.903
247.398
265.587
279.219
283.624
283.39
278.884
265.471
251.778
471.296
251.774
265.466
278.877
283.383
283.143
278.575
265.507
255.809
466.064
255.805
265.502
278.567
283.137
282.85
278.237
265.565
259.673
460.767
259.669
265.56
278.23
282.843
282.453
277.786
265.498
263.438
455.477
263.434
265.494
277.779
282.446
281.904
277.124
265.263
267.236
450.193
267.232
265.258
277.117
281.897
281.238
276.046
264.176
270.367
443.744
270.363
264.171
276.04
281.231
280.91
274.863
264.198
274.846
438.518
274.843
264.193
274.857
280.903
282.135
273.665
259.198
271.691
423.202
271.688
259.193
273.659
282.128
289.216
280.441
277.66
299.744
451.901
299.74
277.655
280.434
289.209
301.265
294.89
314.581
346.655
510.903
346.652
314.576
294.883
301.257
310.506
302.666
278.149
304.328
451.804
304.325
278.144
302.659
310.498
337.123
339.937
205.864
136.539
199.474
136.538
205.86
339.93
337.115
271.498
253.688
314.011
256.928
260.343
256.928
314.01
253.688
271.498
319.569
349.159
414.988
301.359
275.692
301.359
414.988
349.159
319.569
262.168
288.318
359.281
303.577
278.5
303.577
359.28
288.318
262.168
254.161
261.658
325.21
298.992
277.901
298.992
325.209
261.657
254.16
256.916
255
310.101
295.635
277.323
295.635
310.099
254.998
256.915
260.481
255.065
303.866
293.922
277.284
293.921
303.863
255.064
260.479
263.047
256.782
301.292
293.203
277.635
293.203
301.289
256.779
263.045
264.713
258.674
300.186
292.99
278.194
292.989
300.183
258.672
264.711
265.816
260.421
299.673
293.016
278.852
293.015
299.669
260.418
265.813
266.601
261.995
299.402
293.152
279.548
293.15
299.398
261.991
266.597
267.204
263.42
299.226
293.337
280.285
293.336
299.221
263.416
267.2
267.69
264.699
299.072
293.527
280.977
293.526
299.067
264.694
267.686
268.088
265.847
298.842
293.74
282.174
293.738
298.837
265.842
268.084
268.372
266.801
298.331
293.548
281.865
293.546
298.325
266.795
268.366
268.64
267.504
297.081
292.971
290.242
292.969
297.074
267.498
268.634
268.924
267.929
294.1
284.72
259.107
284.718
294.094
267.923
268.918
273.121
270.044
290.301
269.016
356.517
269.014
290.295
270.037
273.114
278.532
272.447
284.276
262.311
530.835
262.308
284.27
272.44
278.524
280.162
272.918
278.716
260.609
541.225
260.606
278.71
272.911
280.155
280.084
272.702
275.72
263.305
535.219
263.302
275.714
272.694
280.077
279.641
272.54
274.589
267.43
526.835
267.426
274.584
272.532
279.633
279.225
272.559
274.402
271.681
517.938
271.677
274.397
272.552
279.218
278.884
272.702
274.64
275.762
509.134
275.757
274.635
272.695
278.876
278.574
272.897
275.067
279.71
500.595
279.705
275.061
272.889
278.566
278.237
273.094
275.61
283.662
492.382
283.657
275.604
273.085
278.229
277.785
273.19
276.168
287.8
484.34
287.795
276.162
273.182
277.777
277.124
273.21
277.051
292.359
476.046
292.354
277.045
273.202
277.116
276.046
272.192
276.636
297.118
465.364
297.114
276.63
272.184
276.039
274.863
271.787
281.268
301.391
449.456
301.387
281.262
271.78
274.855
273.665
260.127
252.396
287.113
395.523
287.11
252.39
260.12
273.658
280.441
263.504
347.031
314.584
395.465
314.582
347.025
263.498
280.433
294.89
272.816
383.743
334.864
400.838
334.861
383.737
272.809
294.882
302.666
289.001
386.653
404.81
510.727
404.807
386.647
288.994
302.658
339.937
383.985
412.102
415.82
534.076
415.815
412.095
383.977
339.93
303.984
314.011
345.351
301.632
261.71
301.632
345.35
314.01
303.984
341.93
414.988
447.385
346.489
271.663
346.489
447.384
414.988
341.93
295.171
359.28
428.776
356.631
276.273
356.631
428.775
359.279
295.17
289.82
325.21
399.308
353.359
277.909
353.359
399.306
325.208
289.819
289.11
310.101
379.646
348.096
278.851
348.096
379.643
310.099
289.109
288.748
303.865
368.136
343.761
279.901
343.76
368.132
303.863
288.746
288.386
301.291
361.219
340.54
281.171
340.54
361.215
301.288
288.384
288.02
300.186
356.645
338.098
282.587
338.097
356.641
300.182
288.017
287.659
299.673
353.253
336.134
284.056
336.134
353.248
299.668
287.656
287.313
299.402
350.474
334.458
285.514
334.458
350.469
299.397
287.309
286.992
299.225
348.027
332.956
286.923
332.954
348.021
299.22
286.987
286.692
299.071
345.75
331.542
288.244
331.541
345.744
299.066
286.687
286.388
298.841
343.493
330.128
289.513
330.127
343.487
298.835
286.382
285.925
298.33
340.994
328.47
290.393
328.468
340.987
298.323
285.919
285.073
297.079
337.821
326.209
291.987
326.208
337.814
297.072
285.067
281.906
294.099
333.307
322.005
288.784
322.003
333.3
294.092
281.899
281.607
290.3
329.155
317.85
302.454
317.848
329.148
290.293
281.6
278.706
284.275
325.188
314.844
350.496
314.842
325.181
284.267
278.699
271.818
278.715
320.748
311.737
370.424
311.734
320.74
278.707
271.811
267.826
275.719
317.275
310.219
377.192
310.216
317.267
275.711
267.818
266.157
274.588
314.926
310.028
379.239
310.025
314.918
274.581
266.149
265.591
274.402
313.33
310.587
379.68
310.584
313.322
274.394
265.583
265.47
274.64
312.176
311.561
379.617
311.557
312.168
274.632
265.462
265.506
275.067
311.322
312.848
379.513
312.845
311.314
275.058
265.498
265.564
275.61
310.728
314.484
379.513
314.48
310.721
275.602
265.556
265.498
276.167
310.536
316.829
379.835
316.825
310.528
276.159
265.49
265.263
277.051
310.744
319.866
380.207
319.862
310.736
277.043
265.255
264.176
276.636
313.859
327.768
383.474
327.765
313.852
276.628
264.169
264.198
281.268
318.674
333.232
383.033
333.229
318.667
281.26
264.191
259.197
252.395
380.37
420.697
448.273
420.693
380.362
252.389
259.191
277.659
347.031
749.148
456.935
509.603
456.933
749.14
347.025
277.652
314.581
383.743
383.736
314.573
278.15
386.653
255.224
259.653
334.672
259.651
255.22
386.645
278.142
205.865
412.103
338.097
354.455
443.65
354.45
338.09
412.094
205.86
300.503
322.577
409.37
322.573
300.497
301.247
317.915
403.76
317.911
301.241
305.278
318.501
402.532
318.497
305.272
308.07
319.828
402.089
319.823
308.064
309.968
321.211
401.914
321.207
309.962
311.469
322.575
401.869
322.571
311.462
312.843
323.945
401.91
323.941
312.837
314.214
325.351
402.023
325.347
314.208
315.596
326.776
402.191
326.772
315.59
317.123
328.337
402.46
328.332
317.117
318.379
329.621
402.676
329.617
318.373
320.947
332.212
403.316
332.207
320.941
245.903
256.927
301.632
307.747
278.469
307.745
301.63
256.927
245.903
271.3
301.358
346.488
327.934
282.116
327.932
346.486
301.358
271.299
265.38
303.576
356.63
336.219
283.011
336.217
356.628
303.575
265.38
265.353
298.991
353.357
336.783
282.484
336.781
353.355
298.99
265.353
267.073
295.634
348.094
334.761
281.931
334.76
348.092
295.632
267.072
268.779
293.92
343.759
332.378
281.848
332.376
343.756
293.918
268.777
270.206
293.202
340.538
330.271
282.247
330.269
340.535
293.199
270.204
271.407
292.988
338.095
328.513
282.99
328.512
338.092
292.985
271.404
272.454
293.014
336.132
327.037
283.943
327.035
336.128
293.011
272.452
273.397
293.149
334.456
325.764
285.006
325.762
334.452
293.145
273.394
274.285
293.335
332.953
324.635
286.118
324.633
332.948
293.331
274.281
275.127
293.525
331.539
323.602
287.238
323.6
331.534
293.52
275.123
276.246
293.737
330.125
322.621
288.345
322.619
330.12
293.732
276.241
276.868
293.545
328.467
321.625
289.425
321.623
328.461
293.539
276.863
280.65
292.968
326.207
320.624
290.636
320.622
326.201
292.962
280.645
266.554
284.717
322.002
319.728
292.412
319.725
321.996
284.711
266.548
244.242
269.013
317.847
321.138
297.879
321.136
317.841
269.007
244.237
236.348
262.308
314.841
323.416
305.458
323.414
314.834
262.303
236.344
232.648
260.606
311.734
323.744
310.168
323.741
311.727
260.601
232.644
236.963
263.303
310.217
323.3
313.086
323.297
310.21
263.297
236.96
242.456
267.427
310.026
322.96
315.41
322.956
310.019
267.421
242.453
247.4
271.678
310.585
322.981
317.697
322.978
310.578
271.672
247.396
251.776
275.759
311.558
323.405
320.165
323.401
311.551
275.753
251.772
255.807
279.707
312.846
324.271
322.938
324.268
312.839
279.7
255.803
259.67
283.658
314.481
325.683
326.16
325.68
314.474
283.652
259.666
263.436
287.796
316.827
327.991
330.167
327.987
316.82
287.79
263.431
267.233
292.355
319.864
331.565
335.373
331.561
319.857
292.348
267.229
270.364
297.114
327.766
339.211
343.934
339.208
327.76
297.108
270.36
274.843
301.388
333.23
349.127
354.771
349.123
333.224
301.382
274.839
271.688
287.11
420.695
398.031
390.732
398.027
420.688
287.104
271.684
299.74
314.582
456.932
250.981
274.664
250.979
456.927
314.577
299.736
346.652
334.861
334.856
346.647
304.325
404.807
259.652
200.177
241.097
200.176
259.649
404.801
304.321
136.538
415.818
354.453
322.047
357.538
322.044
354.447
415.81
136.536
322.576
310.52
352.122
310.518
322.57
317.914
301.609
342.902
301.605
317.907
318.5
299.038
338.832
299.034
318.493
319.826
299.2
337.772
299.197
319.82
321.21
300.391
338.061
300.387
321.204
322.574
301.944
338.895
301.94
322.568
323.944
303.636
339.955
303.632
323.938
325.35
305.405
341.129
305.401
325.343
326.775
307.199
342.354
307.196
326.768
328.336
309.138
343.713
309.135
328.329
329.62
310.739
344.839
310.736
329.614
332.211
313.893
347.118
313.889
332.204
310.212
260.342
261.708
278.467
275.947
278.465
261.707
260.341
310.212
334.604
275.691
271.661
282.115
275.713
282.113
271.659
275.69
334.603
320.367
278.499
276.271
283.009
273.537
283.007
276.269
278.497
320.365
307.641
277.899
277.907
282.483
270.978
282.481
277.905
277.897
307.639
300.245
277.322
278.849
281.929
269.105
281.927
278.847
277.32
300.243
296.173
277.283
279.898
281.846
268.178
281.844
279.896
277.28
296.17
293.793
277.633
281.169
282.245
268.064
282.242
281.166
277.63
293.791
292.246
278.192
282.584
282.988
268.538
282.986
282.581
278.189
292.243
291.127
278.849
284.053
283.941
269.406
283.939
284.05
278.846
291.124
290.245
279.545
285.511
285.005
270.531
285.002
285.508
279.541
290.242
289.606
280.282
286.92
286.116
271.828
286.114
286.916
280.278
289.602
288.956
280.974
288.24
287.236
273.243
287.234
288.237
280.97
288.952
289.998
282.171
289.51
288.343
274.751
288.341
289.506
282.166
289.994
287.244
281.862
290.39
289.424
276.366
289.421
290.386
281.858
287.24
318.628
290.239
291.984
290.634
278.307
290.632
291.979
290.234
318.622
262.693
259.104
288.78
292.41
281.179
292.408
288.776
259.099
262.687
415.876
356.513
302.451
297.877
287.313
297.874
302.445
356.507
415.874
487.698
530.831
350.492
305.456
294.501
305.453
350.486
530.826
487.698
463.289
541.222
370.421
310.166
299.3
310.163
370.414
541.217
463.289
474.782
535.216
377.188
313.084
302.516
313.08
377.182
535.211
474.782
478.258
526.833
379.235
315.408
305.264
315.405
379.229
526.828
478.258
475.903
517.936
379.676
317.695
308.111
317.691
379.67
517.93
475.903
471.296
509.132
379.613
320.163
311.28
320.159
379.607
509.127
471.295
466.065
500.593
379.509
322.936
314.893
322.933
379.504
500.588
466.064
460.768
492.381
379.509
326.158
319.115
326.154
379.503
492.376
460.766
455.478
484.339
379.832
330.165
324.312
330.162
379.826
484.334
455.477
450.195
476.045
380.204
335.371
331.053
335.367
380.198
476.04
450.193
443.746
465.363
383.471
343.932
341.132
343.928
383.465
465.358
443.744
438.52
449.456
383.031
354.77
354.409
354.766
383.025
449.451
438.519
423.205
395.523
448.271
390.731
380.545
390.728
448.265
395.518
423.203
451.904
395.465
509.601
274.664
308.617
274.663
509.596
395.46
451.902
510.906
400.837
400.832
510.904
451.807
510.729
334.672
241.095
220.737
241.093
334.669
510.725
451.806
199.475
534.079
443.652
357.538
294.533
357.535
443.648
534.075
199.475
409.372
352.122
300.974
352.12
409.369
403.763
342.902
297.133
342.9
403.76
402.534
338.833
295.181
338.831
402.531
402.091
337.773
295.424
337.771
402.088
401.917
338.062
296.872
338.06
401.914
401.872
338.896
298.85
338.895
401.869
401.912
339.955
301.045
339.954
401.909
402.026
341.129
303.338
341.128
402.022
402.193
342.354
305.651
342.353
402.19
402.463
343.714
308.109
343.712
402.459
402.678
344.84
310.146
344.838
402.675
403.318
347.119
314.037
347.118
403.315
245.904
256.927
301.631
307.744
278.465
307.744
301.63
256.927
245.903
271.3
301.358
346.487
327.931
282.112
327.93
346.487
301.358
271.299
265.38
303.576
356.629
336.217
283.007
336.216
356.628
303.576
265.38
265.353
298.991
353.357
336.78
282.48
336.78
353.356
298.99
265.352
267.072
295.633
348.093
334.759
281.926
334.758
348.092
295.632
267.071
268.778
293.92
343.758
332.375
281.844
332.375
343.756
293.918
268.777
270.205
293.2
340.537
330.268
282.242
330.268
340.535
293.199
270.203
271.406
292.987
338.094
328.511
282.986
328.51
338.092
292.985
271.404
272.453
293.013
336.131
327.034
283.938
327.033
336.128
293.011
272.451
273.395
293.148
334.454
325.761
285.002
325.76
334.452
293.145
273.393
274.283
293.333
332.951
324.631
286.113
324.63
332.948
293.33
274.281
275.125
293.522
331.537
323.598
287.233
323.598
331.534
293.519
275.123
276.244
293.735
330.123
322.618
288.34
322.617
330.12
293.732
276.241
276.865
293.542
328.464
321.621
289.42
321.62
328.461
293.539
276.862
280.647
292.965
326.204
320.621
290.631
320.62
326.2
292.961
280.644
266.551
284.715
321.999
319.724
292.407
319.722
321.996
284.71
266.547
244.24
269.01
317.844
321.134
297.873
321.132
317.84
269.007
244.237
236.346
262.306
314.838
323.412
305.453
323.41
314.834
262.302
236.344
232.646
260.603
311.731
323.739
310.162
323.737
311.726
260.6
232.644
236.961
263.3
310.214
323.295
313.08
323.294
310.209
263.296
236.96
242.454
267.424
310.022
322.955
315.404
322.953
310.018
267.421
242.452
247.398
271.676
310.582
322.977
317.69
322.974
310.577
271.672
247.396
251.774
275.757
311.555
323.4
320.158
323.398
311.55
275.753
251.772
255.806
279.705
312.843
324.267
322.932
324.265
312.838
279.701
255.804
259.67
283.657
314.479
325.678
326.154
325.676
314.474
283.654
259.668
263.436
287.796
316.825
327.986
330.161
327.984
316.82
287.793
263.434
267.235
292.356
319.862
331.56
335.367
331.558
319.857
292.352
267.233
270.366
297.116
327.765
339.207
343.928
339.205
327.76
297.112
270.364
274.846
301.39
333.229
349.123
354.766
349.121
333.225
301.387
274.844
271.692
287.113
420.694
398.027
390.728
398.025
420.689
287.109
271.69
299.745
314.584
456.932
250.979
274.664
250.978
456.927
314.581
299.743
346.657
334.863
334.859
346.655
304.33
404.81
259.653
200.178
241.095
200.177
259.651
404.806
304.328
136.54
415.82
354.454
322.048
357.538
322.046
354.45
415.815
136.539
322.576
310.521
352.121
310.519
322.573
317.914
301.609
342.902
301.607
317.911
318.5
299.038
338.833
299.036
318.496
319.826
299.2
337.773
299.198
319.823
321.21
300.391
338.061
300.389
321.207
322.574
301.944
338.896
301.942
322.571
323.944
303.636
339.955
303.634
323.941
325.35
305.405
341.129
305.403
325.347
326.775
307.199
342.354
307.197
326.772
328.335
309.138
343.714
309.137
328.332
329.62
310.739
344.84
310.737
329.617
332.21
313.893
347.119
313.891
332.207
303.984
314.01
345.349
301.63
261.706
301.629
345.349
314.01
303.984
341.93
414.987
447.383
346.486
271.659
346.486
447.383
414.987
341.93
295.17
359.279
428.774
356.628
276.268
356.628
428.773
359.279
295.17
289.818
325.207
399.305
353.355
277.904
353.355
399.304
325.207
289.818
289.108
310.097
379.642
348.091
278.846
348.091
379.641
310.097
289.108
288.745
303.861
368.13
343.755
279.895
343.756
368.129
303.861
288.745
288.383
301.287
361.212
340.534
281.165
340.534
361.211
301.286
288.383
288.016
300.181
356.638
338.091
282.58
338.091
356.637
300.18
288.015
287.655
299.667
353.245
336.127
284.049
336.127
353.244
299.666
287.654
287.308
299.395
350.466
334.45
285.507
334.45
350.464
299.394
287.307
286.986
299.218
348.019
332.947
286.916
332.947
348.016
299.217
286.985
286.686
299.064
345.741
331.533
288.236
331.533
345.739
299.062
286.685
286.382
298.833
343.484
330.119
289.505
330.119
343.481
298.831
286.38
285.918
298.322
340.984
328.46
290.385
328.46
340.982
298.32
285.916
285.067
297.071
337.811
326.2
291.979
326.199
337.808
297.069
285.065
281.899
294.091
333.296
321.995
288.775
321.995
333.294
294.088
281.897
281.601
290.292
329.145
317.839
302.444
317.839
329.142
290.289
281.598
278.7
284.267
325.178
314.833
350.485
314.833
325.175
284.264
278.697
271.812
278.707
320.737
311.726
370.413
311.726
320.735
278.704
271.809
267.819
275.711
317.265
310.209
377.181
310.208
317.262
275.708
267.816
266.15
274.581
314.916
310.018
379.229
310.017
314.913
274.578
266.147
265.585
274.394
313.32
310.578
379.67
310.577
313.317
274.391
265.582
265.464
274.632
312.166
311.551
379.606
311.55
312.163
274.629
265.461
265.5
275.059
311.313
312.839
379.503
312.837
311.31
275.056
265.497
265.558
275.603
310.719
314.475
379.503
314.473
310.716
275.599
265.555
265.492
276.161
310.527
316.821
379.825
316.819
310.524
276.157
265.489
265.257
277.044
310.736
319.858
380.197
319.856
310.733
277.041
265.254
264.171
276.63
313.852
327.761
383.465
327.759
313.849
276.626
264.167
264.193
281.262
318.667
333.225
383.025
333.224
318.665
281.259
264.19
259.193
252.391
380.364
420.69
448.264
420.688
380.36
252.388
259.19
277.655
347.027
749.141
456.928
509.597
456.928
749.137
347.024
277.653
314.577
383.739
383.736
314.574
278.146
386.649
255.221
259.651
334.669
259.65
255.22
386.646
278.143
205.861
412.098
338.093
354.451
443.65
354.45
338.091
412.094
205.86
300.5
322.574
409.37
322.572
300.497
301.243
317.911
403.761
317.91
301.24
305.275
318.497
402.532
318.496
305.272
308.066
319.824
402.09
319.822
308.063
309.964
321.207
401.915
321.206
309.961
311.465
322.572
401.87
322.57
311.462
312.84
323.941
401.91
323.94
312.836
314.21
325.347
402.024
325.346
314.207
315.593
326.772
402.191
326.771
315.589
317.119
328.333
402.461
328.332
317.116
318.375
329.617
402.676
329.616
318.372
320.943
332.208
403.316
332.207
320.94
271.498
253.688
314.01
256.927
260.34
256.927
314.01
253.688
271.498
319.569
349.158
414.987
301.357
275.689
301.357
414.987
349.158
319.569
262.167
288.317
359.279
303.575
278.497
303.575
359.278
288.317
262.167
254.16
261.656
325.208
298.99
277.897
298.99
325.207
261.656
254.16
256.915
254.998
310.098
295.631
277.319
295.631
310.097
254.997
256.915
260.479
255.063
303.861
293.918
277.28
293.918
303.86
255.062
260.478
263.045
256.778
301.287
293.198
277.63
293.198
301.286
256.777
263.044
264.71
258.67
300.181
292.984
278.188
292.984
300.18
258.669
264.709
265.812
260.417
299.667
293.01
278.846
293.01
299.665
260.416
265.811
266.596
261.99
299.395
293.144
279.541
293.144
299.394
261.989
266.595
267.199
263.415
299.218
293.329
280.278
293.329
299.216
263.413
267.198
267.685
264.693
299.064
293.519
280.969
293.518
299.062
264.691
267.684
268.083
265.84
298.833
293.731
282.166
293.731
298.831
265.839
268.081
268.365
266.793
298.321
293.538
281.857
293.538
298.32
266.792
268.364
268.633
267.496
297.071
292.961
290.234
292.961
297.069
267.494
268.632
268.916
267.921
294.09
284.71
259.098
284.71
294.088
267.919
268.915
273.113
270.036
290.291
269.006
356.507
269.006
290.289
270.034
273.111
278.524
272.438
284.266
262.302
530.826
262.301
284.264
272.436
278.522
280.154
272.909
278.705
260.6
541.217
260.599
278.704
272.907
280.152
280.076
272.692
275.71
263.297
535.211
263.296
275.708
272.69
280.074
279.632
272.53
274.579
267.421
526.828
267.42
274.578
272.528
279.63
279.217
272.55
274.393
271.673
517.93
271.671
274.391
272.548
279.215
278.876
272.693
274.631
275.754
509.127
275.752
274.629
272.691
278.873
278.566
272.888
275.058
279.702
500.588
279.7
275.056
272.885
278.564
278.229
273.085
275.601
283.654
492.376
283.652
275.599
273.082
278.227
277.778
273.181
276.159
287.792
484.334
287.79
276.157
273.179
277.775
277.116
273.202
277.043
292.352
476.04
292.35
277.041
273.199
277.114
276.04
272.184
276.628
297.111
465.359
297.11
276.627
272.182
276.037
274.857
271.78
281.261
301.386
449.451
301.384
281.259
271.778
274.854
273.659
260.121
252.39
287.108
395.519
287.107
252.388
260.118
273.657
280.435
263.499
347.026
314.58
395.461
314.58
347.024
263.497
280.433
294.884
272.811
383.738
334.859
400.833
334.859
383.736
272.809
294.882
302.66
288.996
386.648
404.806
510.726
404.804
386.646
288.994
302.658
339.933
383.98
412.098
415.816
534.077
415.814
412.095
383.978
339.931
277.841
271.498
303.984
245.903
310.211
245.903
303.984
271.498
277.841
314.604
319.569
341.93
271.299
334.603
271.299
341.93
319.569
314.604
255.96
262.167
295.17
265.38
320.365
265.379
295.17
262.167
255.96
258.452
254.16
289.818
265.352
307.639
265.352
289.818
254.16
258.452
267.583
256.915
289.108
267.071
300.243
267.071
289.108
256.915
267.583
273.721
260.479
288.745
268.776
296.17
268.777
288.745
260.478
273.72
276.883
263.045
288.383
270.203
293.79
270.203
288.382
263.044
276.882
278.271
264.71
288.016
271.404
292.242
271.404
288.015
264.709
278.27
278.74
265.812
287.655
272.45
291.124
272.451
287.654
265.811
278.739
278.758
266.596
287.308
273.393
290.241
273.393
287.307
266.595
278.757
278.557
267.199
286.986
274.28
289.601
274.28
286.985
267.198
278.556
278.237
267.685
286.686
275.122
288.951
275.122
286.685
267.684
278.236
277.823
268.083
286.381
276.241
289.994
276.241
286.38
268.081
277.822
277.324
268.365
285.917
276.862
287.24
276.862
285.916
268.364
277.322
276.873
268.633
285.066
280.644
318.622
280.643
285.064
268.632
276.871
276.856
268.916
281.898
266.547
262.687
266.547
281.897
268.915
276.854
278.925
273.113
281.599
244.237
415.874
244.236
281.598
273.111
278.923
282.041
278.523
278.698
236.344
487.697
236.344
278.697
278.521
282.039
283.616
280.154
271.81
232.645
463.289
232.644
271.809
280.152
283.614
283.98
280.076
267.817
236.96
474.781
236.959
267.817
280.074
283.978
283.859
279.632
266.148
242.453
478.258
242.452
266.148
279.63
283.857
283.623
279.217
265.583
247.397
475.902
247.396
265.582
279.215
283.621
283.383
278.875
265.462
251.773
471.295
251.772
265.461
278.873
283.38
283.136
278.566
265.498
255.805
466.064
255.803
265.497
278.564
283.134
282.843
278.229
265.556
259.668
460.767
259.667
265.555
278.227
282.841
282.446
277.777
265.49
263.434
455.477
263.432
265.489
277.775
282.444
281.897
277.116
265.255
267.232
450.194
267.231
265.254
277.114
281.895
281.231
276.039
264.169
270.363
443.745
270.362
264.168
276.037
281.229
280.904
274.856
264.192
274.843
438.52
274.842
264.191
274.854
280.902
282.129
273.659
259.191
271.688
423.205
271.688
259.191
273.657
282.127
289.211
280.434
277.654
299.741
451.904
299.74
277.653
280.433
289.209
301.259
294.884
314.575
346.653
510.905
346.652
314.574
294.882
301.257
310.5
302.66
278.144
304.326
451.807
304.325
278.143
302.658
310.498
337.119
339.933
205.861
136.538
199.476
136.538
205.86
339.931
337.118
)
;

boundaryField
{
    injectionXMinus
    {
        type            fixedValue;
        value           uniform 400;
    }
    injectionXPlus
    {
        type            fixedValue;
        value           uniform 400;
    }
    injectionYMinus
    {
        type            fixedValue;
        value           uniform 400;
    }
    injectionYPlus
    {
        type            fixedValue;
        value           uniform 400;
    }
    inletXMinus
    {
        type            fixedValue;
        value           uniform 293.15;
    }
    inletXPlus
    {
        type            fixedValue;
        value           uniform 293.15;
    }
    inletYMinus
    {
        type            fixedValue;
        value           uniform 293.15;
    }
    inletYPlus
    {
        type            fixedValue;
        value           uniform 293.15;
    }
    outlet
    {
        type            zeroGradient;
    }
    valve
    {
        type            zeroGradient;
    }
    walls
    {
        type            zeroGradient;
    }
}


// ************************************************************************* //
