/*--------------------------------*- C++ -*----------------------------------*\
  =========                 |
  \\      /  F ield         | OpenFOAM: The Open Source CFD Toolbox
   \\    /   O peration     | Website:  https://openfoam.org
    \\  /    A nd           | Version:  6
     \\/     M anipulation  |
\*---------------------------------------------------------------------------*/
FoamFile
{
    version     2.0;
    format      ascii;
    class       volVectorField;
    location    "0.001";
    object      U;
}
// * * * * * * * * * * * * * * * * * * * * * * * * * * * * * * * * * * * * * //

dimensions      [0 1 -1 0 0 0 0];

internalField   nonuniform List<vector> 
1024
(
(-7.67049e-06 25 5.6916e-06)
(-3.28757e-05 25 3.48941e-06)
(-6.09149e-05 25 1.80365e-06)
(-7.56267e-05 25 1.60575e-07)
(-7.72574e-05 25 -1.33117e-06)
(-6.57388e-05 25 -2.41419e-06)
(-4.32228e-05 25 -2.81121e-06)
(-1.48245e-05 25 -2.04148e-06)
(-9.50735e-06 25 4.67069e-06)
(-3.60389e-05 25 2.98775e-06)
(-6.34495e-05 25 1.75009e-06)
(-7.78462e-05 25 5.49542e-07)
(-7.88958e-05 25 -5.32619e-07)
(-6.64156e-05 25 -1.30616e-06)
(-4.23581e-05 25 -1.55409e-06)
(-1.391e-05 25 -9.39174e-07)
(-9.41071e-06 25 4.62984e-06)
(-3.5534e-05 25 3.04416e-06)
(-6.22969e-05 25 1.96207e-06)
(-7.61627e-05 25 9.05395e-07)
(-7.69961e-05 25 -6.98998e-08)
(-6.4644e-05 25 -7.97144e-07)
(-4.11292e-05 25 -1.06999e-06)
(-1.34922e-05 25 -5.86006e-07)
(-8.9327e-06 25 4.47886e-06)
(-3.38925e-05 25 2.96101e-06)
(-5.94386e-05 25 2.00098e-06)
(-7.25676e-05 25 1.05859e-06)
(-7.33533e-05 25 1.75386e-07)
(-6.16519e-05 25 -4.99936e-07)
(-3.94017e-05 25 -7.84077e-07)
(-1.30143e-05 25 -4.24886e-07)
(-8.45225e-06 25 4.04857e-06)
(-3.17615e-05 25 2.66881e-06)
(-5.5408e-05 25 1.83734e-06)
(-6.75456e-05 25 1.01241e-06)
(-6.83033e-05 25 2.31464e-07)
(-5.75263e-05 25 -3.72725e-07)
(-3.69912e-05 25 -6.42243e-07)
(-1.23214e-05 25 -3.77319e-07)
(-8.02501e-06 24.9999 3.39913e-06)
(-2.93532e-05 24.9999 2.22667e-06)
(-5.05662e-05 24.9999 1.52484e-06)
(-6.14973e-05 24.9999 8.17568e-07)
(-6.21781e-05 25 1.44469e-07)
(-5.24375e-05 25 -3.76508e-07)
(-3.38691e-05 25 -6.10109e-07)
(-1.13505e-05 25 -3.93427e-07)
(-7.5799e-06 24.9999 2.68109e-06)
(-2.67127e-05 24.9999 1.74993e-06)
(-4.52209e-05 24.9999 1.16896e-06)
(-5.48259e-05 24.9999 5.7306e-07)
(-5.53757e-05 24.9999 5.38174e-09)
(-4.66908e-05 25 -4.30602e-07)
(-3.01853e-05 25 -6.18068e-07)
(-1.01323e-05 25 -4.12761e-07)
(-7.00359e-06 24.9999 2.0578e-06)
(-2.38219e-05 24.9999 1.35353e-06)
(-3.96415e-05 24.9999 8.75293e-07)
(-4.79169e-05 24.9999 3.77275e-07)
(-4.83185e-05 24.9999 -9.65123e-08)
(-4.06736e-05 24.9999 -4.5661e-07)
(-2.62259e-05 24.9999 -6.00815e-07)
(-8.77707e-06 25 -3.92895e-07)
(-6.22685e-06 24.9999 1.62979e-06)
(-2.07034e-05 24.9999 1.09926e-06)
(-3.40726e-05 24.9999 7.01727e-07)
(-4.11105e-05 24.9999 2.84905e-07)
(-4.13924e-05 24.9999 -1.11113e-07)
(-3.47663e-05 24.9999 -4.10637e-07)
(-2.23132e-05 24.9999 -5.24165e-07)
(-7.42475e-06 24.9999 -3.22263e-07)
(-5.26827e-06 24.9999 1.40291e-06)
(-1.74642e-05 24.9999 9.78266e-07)
(-2.8717e-05 24.9999 6.41872e-07)
(-3.46543e-05 24.9999 2.90773e-07)
(-3.487e-05 24.9999 -4.30658e-08)
(-2.9242e-05 24.9999 -2.97132e-07)
(-1.86922e-05 24.9999 -3.94651e-07)
(-6.18712e-06 24.9999 -2.2011e-07)
(-4.22583e-06 24.9999 1.29944e-06)
(-1.4271e-05 24.9999 9.2664e-07)
(-2.3704e-05 24.9999 6.40141e-07)
(-2.86674e-05 24.9999 3.45034e-07)
(-2.88666e-05 24.9999 6.35535e-08)
(-2.42098e-05 24.9999 -1.54492e-07)
(-1.54637e-05 24.9999 -2.46226e-07)
(-5.11193e-06 24.9999 -1.18618e-07)
(-3.22756e-06 24.9999 1.20607e-06)
(-1.12844e-05 24.9999 8.62268e-07)
(-1.90671e-05 24.9999 6.23545e-07)
(-2.3134e-05 24.9999 3.81599e-07)
(-2.33384e-05 24.9999 1.49685e-07)
(-1.96139e-05 24.9999 -3.39913e-08)
(-1.2576e-05 24.9999 -1.21378e-07)
(-4.17672e-06 24.9999 -4.79941e-08)
(-2.37073e-06 24.9999 1.02959e-06)
(-8.58847e-06 24.9999 7.25101e-07)
(-1.47439e-05 24.9999 5.39632e-07)
(-1.79342e-05 24.9999 3.53936e-07)
(-1.81332e-05 24.9999 1.75227e-07)
(-1.52914e-05 24.9999 3.08802e-08)
(-9.87919e-06 24.9999 -4.57329e-08)
(-3.31296e-06 24.9999 -1.754e-08)
(-1.68214e-06 24.9999 7.34914e-07)
(-6.15671e-06 24.9999 5.02234e-07)
(-1.06036e-05 24.9999 3.76693e-07)
(-1.28973e-05 24.9999 2.52257e-07)
(-1.30592e-05 24.9999 1.32616e-07)
(-1.10493e-05 24.9999 3.53066e-08)
(-7.20027e-06 24.9999 -1.96058e-08)
(-2.44182e-06 24.9999 -1.68265e-08)
(-1.09949e-06 24.9999 3.62913e-07)
(-3.8477e-06 24.9999 2.36139e-07)
(-6.48626e-06 24.9999 1.73361e-07)
(-7.86091e-06 24.9999 1.11873e-07)
(-7.95741e-06 24.9999 5.3867e-08)
(-6.74378e-06 24.9999 7.62281e-09)
(-4.42106e-06 24.9999 -1.80485e-08)
(-1.51182e-06 24.9999 -2.04204e-08)
(-4.50765e-07 24.9999 5.39628e-08)
(-1.40964e-06 24.9999 3.20584e-08)
(-2.24787e-06 24.9999 2.04634e-08)
(-2.70631e-06 24.9999 9.50523e-09)
(-2.73359e-06 24.9999 -1.49982e-10)
(-2.31375e-06 24.9999 -7.09792e-09)
(-1.51601e-06 24.9999 -9.87551e-09)
(-5.18533e-07 24.9999 -9.93046e-09)
(-9.87268e-06 25 7.36253e-06)
(-3.67636e-05 25 4.63718e-06)
(-6.42437e-05 25 2.63089e-06)
(-7.87615e-05 25 7.42584e-07)
(-7.98322e-05 25 -9.23226e-07)
(-6.72188e-05 25 -2.09025e-06)
(-4.28501e-05 25 -2.46294e-06)
(-1.40547e-05 25 -1.63328e-06)
(-1.11903e-05 25 6.15605e-06)
(-3.89595e-05 25 4.11957e-06)
(-6.58877e-05 25 2.70086e-06)
(-8.01289e-05 25 1.36966e-06)
(-8.07515e-05 25 1.821e-07)
(-6.74371e-05 25 -6.68707e-07)
(-4.19911e-05 25 -9.43051e-07)
(-1.32951e-05 25 -3.70545e-07)
(-1.09964e-05 25 5.96279e-06)
(-3.82018e-05 25 4.0668e-06)
(-6.44356e-05 25 2.84712e-06)
(-7.81946e-05 25 1.69383e-06)
(-7.86986e-05 25 6.34561e-07)
(-6.56441e-05 25 -1.64946e-07)
(-4.0918e-05 25 -4.81742e-07)
(-1.30082e-05 25 -5.3477e-08)
(-1.04505e-05 25 5.62447e-06)
(-3.63704e-05 25 3.84043e-06)
(-6.13411e-05 25 2.7676e-06)
(-7.43931e-05 25 1.74381e-06)
(-7.49118e-05 25 7.858e-07)
(-6.26114e-05 25 4.28747e-08)
(-3.93266e-05 25 -2.87813e-07)
(-1.26551e-05 25 1.30076e-08)
(-9.83201e-06 25 4.99619e-06)
(-3.39727e-05 25 3.40882e-06)
(-5.70644e-05 25 2.48244e-06)
(-6.91515e-05 25 1.58278e-06)
(-6.96884e-05 25 7.29932e-07)
(-5.84e-05 25 5.99964e-08)
(-3.69958e-05 25 -2.56249e-07)
(-1.20564e-05 25 -4.69915e-08)
(-9.19747e-06 24.9999 4.17936e-06)
(-3.12275e-05 24.9999 2.86128e-06)
(-5.19753e-05 24.9999 2.07732e-06)
(-6.28777e-05 24.9999 1.29694e-06)
(-6.33721e-05 25 5.50991e-07)
(-5.31921e-05 25 -3.66949e-08)
(-3.38861e-05 25 -3.18498e-07)
(-1.11338e-05 25 -1.53987e-07)
(-8.51106e-06 24.9999 3.35066e-06)
(-2.82249e-05 24.9999 2.32461e-06)
(-4.63977e-05 24.9999 1.66912e-06)
(-5.59895e-05 24.9999 9.98761e-07)
(-5.63794e-05 24.9999 3.55006e-07)
(-4.73143e-05 25 -1.51039e-07)
(-3.01674e-05 25 -3.90238e-07)
(-9.92697e-06 25 -2.35986e-07)
(-7.70786e-06 24.9999 2.67277e-06)
(-2.50044e-05 24.9999 1.90297e-06)
(-4.06178e-05 24.9999 1.35254e-06)
(-4.88887e-05 24.9999 7.76885e-07)
(-4.91524e-05 24.9999 2.22657e-07)
(-4.11779e-05 24.9999 -2.12074e-07)
(-2.61622e-05 24.9999 -4.12952e-07)
(-8.56915e-06 25 -2.57207e-07)
(-6.75739e-06 24.9999 2.22027e-06)
(-2.16314e-05 24.9999 1.63129e-06)
(-3.48869e-05 24.9999 1.16037e-06)
(-4.19233e-05 24.9999 6.63106e-07)
(-4.20879e-05 24.9999 1.83402e-07)
(-3.51794e-05 24.9999 -1.9435e-07)
(-2.22248e-05 24.9999 -3.68659e-07)
(-7.22285e-06 24.9999 -2.20792e-07)
(-5.69292e-06 24.9999 1.96325e-06)
(-1.82252e-05 24.9999 1.47263e-06)
(-2.94045e-05 24.9999 1.06145e-06)
(-3.53392e-05 24.9999 6.29639e-07)
(-3.5458e-05 24.9999 2.12212e-07)
(-2.95936e-05 24.9999 -1.20212e-07)
(-1.86152e-05 24.9999 -2.79805e-07)
(-6.01258e-06 24.9999 -1.59437e-07)
(-4.59863e-06 24.9999 1.7956e-06)
(-1.49303e-05 24.9999 1.34701e-06)
(-2.42856e-05 24.9999 9.87673e-07)
(-2.9244e-05 24.9999 6.1636e-07)
(-2.93661e-05 24.9999 2.56601e-07)
(-2.45196e-05 24.9999 -3.48565e-08)
(-1.54278e-05 24.9999 -1.85434e-07)
(-4.98432e-06 24.9999 -1.09048e-07)
(-3.57137e-06 24.9999 1.59545e-06)
(-1.18669e-05 24.9999 1.1739e-06)
(-1.95477e-05 24.9999 8.69992e-07)
(-2.36078e-05 24.9999 5.61552e-07)
(-2.37539e-05 24.9999 2.6205e-07)
(-1.98849e-05 24.9999 1.52368e-08)
(-1.259e-05 24.9999 -1.23246e-07)
(-4.10333e-06 24.9999 -9.39703e-08)
(-2.67522e-06 24.9999 1.28266e-06)
(-9.07842e-06 24.9999 9.11366e-07)
(-1.5115e-05 24.9999 6.74308e-07)
(-1.82986e-05 24.9999 4.36746e-07)
(-1.84562e-05 24.9999 2.05732e-07)
(-1.55124e-05 24.9999 1.27682e-08)
(-9.92761e-06 24.9999 -1.03093e-07)
(-3.28476e-06 24.9999 -1.08391e-07)
(-1.91482e-06 24.9999 8.5295e-07)
(-6.51493e-06 24.9999 5.74345e-07)
(-1.08536e-05 24.9999 4.14685e-07)
(-1.31414e-05 24.9999 2.55807e-07)
(-1.32761e-05 24.9999 1.01656e-07)
(-1.12016e-05 24.9999 -2.7359e-08)
(-7.2524e-06 24.9999 -1.07575e-07)
(-2.43904e-06 24.9999 -1.25516e-07)
(-1.22626e-06 24.9999 3.845e-07)
(-4.03726e-06 24.9999 2.3595e-07)
(-6.61053e-06 24.9999 1.56288e-07)
(-7.98041e-06 24.9999 7.75823e-08)
(-8.06166e-06 24.9999 2.33852e-09)
(-6.81569e-06 24.9999 -5.95841e-08)
(-4.4491e-06 24.9999 -9.72002e-08)
(-1.51419e-06 24.9999 -1.09204e-07)
(-4.72669e-07 24.9999 4.4376e-08)
(-1.44314e-06 24.9999 1.88411e-08)
(-2.27042e-06 24.9999 3.38417e-09)
(-2.72692e-06 24.9999 -1.17349e-08)
(-2.75019e-06 24.9999 -2.56621e-08)
(-2.32347e-06 24.9999 -3.64796e-08)
(-1.51884e-06 24.9999 -4.20999e-08)
(-5.18588e-07 24.9999 -4.4463e-08)
(-1.03958e-05 25 2.17283e-06)
(-3.76073e-05 25 1.66221e-06)
(-6.48095e-05 25 1.37229e-06)
(-7.91808e-05 25 1.16623e-06)
(-8.00903e-05 25 1.01727e-06)
(-6.72785e-05 25 9.20328e-07)
(-4.27659e-05 25 8.89889e-07)
(-1.39948e-05 25 8.34734e-07)
(-1.15438e-05 25 1.92364e-06)
(-3.94941e-05 25 1.57813e-06)
(-6.61994e-05 25 1.43217e-06)
(-8.0365e-05 25 1.34302e-06)
(-8.09342e-05 25 1.26213e-06)
(-6.75408e-05 25 1.16689e-06)
(-4.20599e-05 25 1.06999e-06)
(-1.33375e-05 25 8.84041e-07)
(-1.13067e-05 25 1.63843e-06)
(-3.86497e-05 25 1.3373e-06)
(-6.46698e-05 25 1.23273e-06)
(-7.83752e-05 25 1.17322e-06)
(-7.88549e-05 25 1.11008e-06)
(-6.57603e-05 25 1.02111e-06)
(-4.10177e-05 25 9.10344e-07)
(-1.30639e-05 25 7.25209e-07)
(-1.07167e-05 25 1.34488e-06)
(-3.67494e-05 25 1.089e-06)
(-6.15353e-05 25 1.00213e-06)
(-7.45494e-05 25 9.47602e-07)
(-7.50542e-05 25 8.83767e-07)
(-6.27255e-05 25 7.94986e-07)
(-3.94315e-05 25 6.84306e-07)
(-1.27135e-05 25 5.07793e-07)
(-1.00396e-05 25 1.09023e-06)
(-3.42752e-05 25 8.91951e-07)
(-5.7234e-05 25 8.09401e-07)
(-6.92981e-05 25 7.44876e-07)
(-6.98261e-05 25 6.68195e-07)
(-5.85125e-05 25 5.71612e-07)
(-3.70982e-05 25 4.60083e-07)
(-1.21121e-05 25 2.95468e-07)
(-9.3431e-06 24.9999 9.16359e-07)
(-3.14552e-05 24.9999 7.76218e-07)
(-5.21305e-05 24.9999 6.90016e-07)
(-6.30236e-05 24.9999 6.07846e-07)
(-6.35117e-05 25 5.1197e-07)
(-5.3307e-05 25 4.01539e-07)
(-3.39864e-05 25 2.8403e-07)
(-1.1186e-05 25 1.27847e-07)
(-8.60595e-06 24.9999 8.29477e-07)
(-2.83943e-05 24.9999 7.33191e-07)
(-4.65467e-05 24.9999 6.38638e-07)
(-5.614e-05 24.9999 5.36927e-07)
(-5.65255e-05 24.9999 4.20634e-07)
(-4.74361e-05 25 2.93981e-07)
(-3.02702e-05 25 1.66444e-07)
(-9.97802e-06 25 1.30891e-08)
(-7.77338e-06 24.9999 7.9895e-07)
(-2.51421e-05 24.9999 7.22308e-07)
(-4.07676e-05 24.9999 6.16579e-07)
(-4.90468e-05 24.9999 4.96818e-07)
(-4.93075e-05 24.9999 3.62501e-07)
(-4.13092e-05 24.9999 2.21067e-07)
(-2.6271e-05 24.9999 8.3459e-08)
(-8.62132e-06 25 -6.94127e-08)
(-6.81583e-06 24.9999 7.71367e-07)
(-2.17633e-05 24.9999 6.90946e-07)
(-3.50407e-05 24.9999 5.74507e-07)
(-4.20875e-05 24.9999 4.42057e-07)
(-4.22498e-05 24.9999 2.96294e-07)
(-3.53184e-05 24.9999 1.46319e-07)
(-2.23396e-05 24.9999 3.7239e-09)
(-7.27688e-06 24.9999 -1.4593e-07)
(-5.75889e-06 24.9999 6.98722e-07)
(-1.8366e-05 24.9999 6.01431e-07)
(-2.956e-05 24.9999 4.78727e-07)
(-3.55035e-05 24.9999 3.41817e-07)
(-3.56199e-05 24.9999 1.94144e-07)
(-2.9734e-05 24.9999 4.5135e-08)
(-1.87315e-05 24.9999 -9.37947e-08)
(-6.06676e-06 24.9999 -2.33704e-07)
(-4.67441e-06 24.9999 5.59275e-07)
(-1.50789e-05 24.9999 4.46867e-07)
(-2.44346e-05 24.9999 3.26253e-07)
(-2.93984e-05 24.9999 1.95342e-07)
(-2.95178e-05 24.9999 5.68912e-08)
(-2.46518e-05 24.9999 -8.02547e-08)
(-1.55379e-05 24.9999 -2.05866e-07)
(-5.03555e-06 24.9999 -3.28394e-07)
(-3.64911e-06 24.9999 3.65927e-07)
(-1.20098e-05 24.9999 2.51673e-07)
(-1.96794e-05 24.9999 1.42989e-07)
(-2.37419e-05 24.9999 2.77633e-08)
(-2.38847e-05 24.9999 -9.17545e-08)
(-1.99992e-05 24.9999 -2.07932e-07)
(-1.26852e-05 24.9999 -3.12275e-07)
(-4.14744e-06 24.9999 -4.10965e-07)
(-2.74203e-06 24.9999 1.58315e-07)
(-9.19682e-06 24.9999 6.02887e-08)
(-1.52185e-05 24.9999 -2.72805e-08)
(-1.84027e-05 24.9999 -1.18753e-07)
(-1.85572e-05 24.9999 -2.1208e-07)
(-1.56002e-05 24.9999 -3.00975e-07)
(-1.00003e-05 24.9999 -3.78913e-07)
(-3.31826e-06 24.9999 -4.49795e-07)
(-1.96075e-06 24.9999 -1.00971e-08)
(-6.59497e-06 24.9999 -7.8539e-08)
(-1.09221e-05 24.9999 -1.39071e-07)
(-1.32104e-05 24.9999 -2.02269e-07)
(-1.33424e-05 24.9999 -2.65781e-07)
(-1.12586e-05 24.9999 -3.24848e-07)
(-7.29843e-06 24.9999 -3.74786e-07)
(-2.45976e-06 24.9999 -4.17723e-07)
(-1.24804e-06 24.9999 -8.94115e-08)
(-4.07592e-06 24.9999 -1.23962e-07)
(-6.64463e-06 24.9999 -1.56669e-07)
(-8.01486e-06 24.9999 -1.91036e-07)
(-8.09457e-06 24.9999 -2.2516e-07)
(-6.84332e-06 24.9999 -2.55985e-07)
(-4.47068e-06 24.9999 -2.80693e-07)
(-1.52383e-06 24.9999 -3.00961e-07)
(-4.763e-07 24.9999 -5.51448e-08)
(-1.45063e-06 24.9999 -6.26901e-08)
(-2.27844e-06 24.9999 -7.18732e-08)
(-2.73535e-06 24.9999 -8.17671e-08)
(-2.75833e-06 24.9999 -9.15349e-08)
(-2.33019e-06 24.9999 -1.0014e-07)
(-1.52399e-06 24.9999 -1.06737e-07)
(-5.20896e-07 24.9999 -1.12261e-07)
(-1.03833e-05 25 2.62809e-07)
(-3.75642e-05 25 2.94866e-07)
(-6.47397e-05 25 3.29505e-07)
(-7.91165e-05 25 3.84764e-07)
(-8.00781e-05 25 4.27632e-07)
(-6.73462e-05 25 4.19489e-07)
(-4.29357e-05 25 3.4549e-07)
(-1.41099e-05 25 1.74527e-07)
(-1.15358e-05 25 1.24018e-07)
(-3.9451e-05 25 1.37522e-07)
(-6.61228e-05 25 1.57819e-07)
(-8.0299e-05 25 1.89202e-07)
(-8.09277e-05 25 2.06211e-07)
(-6.76292e-05 25 1.77027e-07)
(-4.2274e-05 25 8.20642e-08)
(-1.3481e-05 25 -1.11752e-07)
(-1.12975e-05 25 -1.06887e-07)
(-3.86075e-05 25 -8.79224e-08)
(-6.45997e-05 25 -7.45655e-08)
(-7.83173e-05 25 -5.77222e-08)
(-7.88507e-05 25 -5.60053e-08)
(-6.58438e-05 25 -9.21446e-08)
(-4.12139e-05 25 -1.8355e-07)
(-1.31933e-05 25 -3.54941e-07)
(-1.07064e-05 25 -2.70872e-07)
(-3.67131e-05 25 -2.51014e-07)
(-6.14825e-05 25 -2.506e-07)
(-7.45115e-05 25 -2.54482e-07)
(-7.50644e-05 25 -2.75038e-07)
(-6.28108e-05 25 -3.26094e-07)
(-3.96138e-05 25 -4.20372e-07)
(-1.28316e-05 25 -5.77457e-07)
(-1.00303e-05 25 -3.34803e-07)
(-3.42535e-05 25 -3.2137e-07)
(-5.72115e-05 25 -3.43914e-07)
(-6.92927e-05 25 -3.77439e-07)
(-6.98617e-05 25 -4.27907e-07)
(-5.86081e-05 25 -5.00431e-07)
(-3.7272e-05 25 -6.01496e-07)
(-1.22211e-05 25 -7.46685e-07)
(-9.33761e-06 24.9999 -3.04887e-07)
(-3.14538e-05 24.9999 -3.04765e-07)
(-5.21437e-05 24.9999 -3.54509e-07)
(-6.30557e-05 24.9999 -4.20172e-07)
(-6.35785e-05 25 -5.02372e-07)
(-5.342e-05 25 -5.99163e-07)
(-3.41598e-05 25 -7.11276e-07)
(-1.129e-05 25 -8.50213e-07)
(-8.60735e-06 24.9999 -2.24471e-07)
(-2.84157e-05 24.9999 -2.42969e-07)
(-4.6594e-05 24.9999 -3.18382e-07)
(-5.62075e-05 24.9999 -4.12748e-07)
(-5.66223e-05 24.9999 -5.22638e-07)
(-4.75685e-05 25 -6.41311e-07)
(-3.04483e-05 25 -7.65794e-07)
(-1.00803e-05 25 -9.0303e-07)
(-7.7845e-06 24.9999 -1.52264e-07)
(-2.51868e-05 24.9999 -1.92545e-07)
(-4.08433e-05 24.9999 -2.88805e-07)
(-4.91428e-05 24.9999 -4.05063e-07)
(-4.94282e-05 24.9999 -5.3512e-07)
(-4.1457e-05 24.9999 -6.69396e-07)
(-2.64526e-05 24.9999 -8.02641e-07)
(-8.72202e-06 25 -9.37928e-07)
(-6.83781e-06 24.9999 -1.37256e-07)
(-2.18283e-05 24.9999 -1.9861e-07)
(-3.51358e-05 24.9999 -3.08342e-07)
(-4.22015e-05 24.9999 -4.37336e-07)
(-4.23837e-05 24.9999 -5.77297e-07)
(-3.54719e-05 24.9999 -7.17289e-07)
(-2.2517e-05 24.9999 -8.51199e-07)
(-7.3725e-06 24.9999 -9.78771e-07)
(-5.79021e-06 24.9999 -1.95641e-07)
(-1.84452e-05 24.9999 -2.72648e-07)
(-2.96641e-05 24.9999 -3.87133e-07)
(-3.56238e-05 24.9999 -5.18643e-07)
(-3.57546e-05 24.9999 -6.57553e-07)
(-2.98815e-05 24.9999 -7.92595e-07)
(-1.88941e-05 24.9999 -9.17306e-07)
(-6.15249e-06 24.9999 -1.02959e-06)
(-4.71104e-06 24.9999 -3.06857e-07)
(-1.51633e-05 24.9999 -3.90318e-07)
(-2.45371e-05 24.9999 -5.00282e-07)
(-2.95133e-05 24.9999 -6.24227e-07)
(-2.96417e-05 24.9999 -7.51752e-07)
(-2.47823e-05 24.9999 -8.72093e-07)
(-1.5676e-05 24.9999 -9.79128e-07)
(-5.10685e-06 24.9999 -1.06961e-06)
(-3.68562e-06 24.9999 -4.23726e-07)
(-1.20899e-05 24.9999 -5.03218e-07)
(-1.97717e-05 24.9999 -6.01009e-07)
(-2.38426e-05 24.9999 -7.09428e-07)
(-2.39896e-05 24.9999 -8.18263e-07)
(-2.01054e-05 24.9999 -9.17752e-07)
(-1.2793e-05 24.9999 -1.0021e-06)
(-4.20203e-06 24.9999 -1.068e-06)
(-2.77325e-06 24.9999 -4.93434e-07)
(-9.26402e-06 24.9999 -5.60061e-07)
(-1.52941e-05 24.9999 -6.39954e-07)
(-1.84834e-05 24.9999 -7.27388e-07)
(-1.86385e-05 24.9999 -8.13057e-07)
(-1.56792e-05 24.9999 -8.88631e-07)
(-1.00764e-05 24.9999 -9.48981e-07)
(-3.35565e-06 24.9999 -9.90566e-07)
(-1.98326e-06 24.9999 -4.74838e-07)
(-6.6439e-06 24.9999 -5.22872e-07)
(-1.09773e-05 24.9999 -5.81516e-07)
(-1.32681e-05 24.9999 -6.45073e-07)
(-1.33987e-05 24.9999 -7.06056e-07)
(-1.13106e-05 24.9999 -7.57815e-07)
(-7.34528e-06 24.9999 -7.95782e-07)
(-2.48197e-06 24.9999 -8.17023e-07)
(-1.26081e-06 24.9999 -3.50714e-07)
(-4.10451e-06 24.9999 -3.783e-07)
(-6.67761e-06 24.9999 -4.13873e-07)
(-8.0489e-06 24.9999 -4.52434e-07)
(-8.1266e-06 24.9999 -4.88749e-07)
(-6.87123e-06 24.9999 -5.18294e-07)
(-4.49408e-06 24.9999 -5.37928e-07)
(-1.53446e-06 24.9999 -5.45515e-07)
(-4.80214e-07 24.9999 -1.32921e-07)
(-1.45987e-06 24.9999 -1.41533e-07)
(-2.2895e-06 24.9999 -1.53904e-07)
(-2.74658e-06 24.9999 -1.67389e-07)
(-2.76856e-06 24.9999 -1.79993e-07)
(-2.33868e-06 24.9999 -1.90073e-07)
(-1.53096e-06 24.9999 -1.96319e-07)
(-5.24112e-07 24.9999 -1.97817e-07)
(-1.03638e-05 25 -1.20136e-06)
(-3.75406e-05 25 -1.2604e-06)
(-6.47196e-05 25 -1.28877e-06)
(-7.90827e-05 25 -1.25613e-06)
(-8.00555e-05 25 -1.18421e-06)
(-6.73606e-05 25 -1.09731e-06)
(-4.30108e-05 25 -1.01623e-06)
(-1.41658e-05 25 -9.76691e-07)
(-1.15303e-05 25 -1.40407e-06)
(-3.94603e-05 25 -1.46415e-06)
(-6.61477e-05 25 -1.51928e-06)
(-8.03166e-05 25 -1.53372e-06)
(-8.09464e-05 25 -1.51337e-06)
(-6.76649e-05 25 -1.46369e-06)
(-4.23487e-05 25 -1.38559e-06)
(-1.35313e-05 25 -1.29082e-06)
(-1.12877e-05 25 -1.59318e-06)
(-3.86174e-05 25 -1.63422e-06)
(-6.46396e-05 25 -1.69462e-06)
(-7.83567e-05 25 -1.72776e-06)
(-7.88893e-05 25 -1.73152e-06)
(-6.58878e-05 25 -1.70029e-06)
(-4.12805e-05 25 -1.62636e-06)
(-1.32353e-05 25 -1.50899e-06)
(-1.06969e-05 25 -1.68118e-06)
(-3.67291e-05 25 -1.71213e-06)
(-6.15387e-05 25 -1.7818e-06)
(-7.45738e-05 25 -1.83714e-06)
(-7.51258e-05 25 -1.87036e-06)
(-6.28709e-05 25 -1.86822e-06)
(-3.96829e-05 25 -1.81832e-06)
(-1.28706e-05 25 -1.70838e-06)
(-1.00262e-05 25 -1.66238e-06)
(-3.42843e-05 25 -1.6921e-06)
(-5.72901e-05 25 -1.77679e-06)
(-6.93821e-05 25 -1.8579e-06)
(-6.99491e-05 25 -1.92277e-06)
(-5.86861e-05 25 -1.95173e-06)
(-3.73445e-05 25 -1.92743e-06)
(-1.22573e-05 25 -1.83517e-06)
(-9.34298e-06 24.9999 -1.55331e-06)
(-3.15048e-05 24.9999 -1.59009e-06)
(-5.2246e-05 24.9999 -1.69117e-06)
(-6.31715e-05 24.9999 -1.79644e-06)
(-6.36907e-05 25 -1.88967e-06)
(-5.35159e-05 25 -1.94653e-06)
(-3.42375e-05 25 -1.9461e-06)
(-1.13249e-05 25 -1.87256e-06)
(-8.62445e-06 24.9999 -1.39983e-06)
(-2.84882e-05 24.9999 -1.45083e-06)
(-4.67165e-05 24.9999 -1.56679e-06)
(-5.63443e-05 24.9999 -1.69139e-06)
(-5.67541e-05 24.9999 -1.80622e-06)
(-4.76792e-05 25 -1.88467e-06)
(-3.0532e-05 25 -1.90383e-06)
(-1.01153e-05 25 -1.84723e-06)
(-7.81367e-06 24.9999 -1.25772e-06)
(-2.52787e-05 24.9999 -1.32823e-06)
(-4.09801e-05 24.9999 -1.456e-06)
(-4.92931e-05 24.9999 -1.59378e-06)
(-4.95718e-05 24.9999 -1.72214e-06)
(-4.15768e-05 24.9999 -1.81398e-06)
(-2.65395e-05 24.9999 -1.84622e-06)
(-8.75661e-06 25 -1.80133e-06)
(-6.87718e-06 24.9999 -1.16987e-06)
(-2.19344e-05 24.9999 -1.26043e-06)
(-3.52795e-05 24.9999 -1.39532e-06)
(-4.23564e-05 24.9999 -1.53894e-06)
(-4.25298e-05 24.9999 -1.67158e-06)
(-3.55923e-05 24.9999 -1.76734e-06)
(-2.26011e-05 24.9999 -1.80403e-06)
(-7.40445e-06 24.9999 -1.76338e-06)
(-5.8359e-06 24.9999 -1.14466e-06)
(-1.85575e-05 24.9999 -1.24991e-06)
(-2.9806e-05 24.9999 -1.38505e-06)
(-3.57739e-05 24.9999 -1.52609e-06)
(-3.58938e-05 24.9999 -1.65384e-06)
(-2.99937e-05 24.9999 -1.74459e-06)
(-1.89685e-05 24.9999 -1.77814e-06)
(-6.17904e-06 24.9999 -1.73575e-06)
(-4.75787e-06 24.9999 -1.15515e-06)
(-1.52723e-05 24.9999 -1.26476e-06)
(-2.46685e-05 24.9999 -1.39202e-06)
(-2.96499e-05 24.9999 -1.52176e-06)
(-2.97657e-05 24.9999 -1.63621e-06)
(-2.48792e-05 24.9999 -1.71485e-06)
(-1.57354e-05 24.9999 -1.73989e-06)
(-5.12603e-06 24.9999 -1.69328e-06)
(-3.7286e-06 24.9999 -1.15044e-06)
(-1.21871e-05 24.9999 -1.25253e-06)
(-1.98856e-05 24.9999 -1.36412e-06)
(-2.39592e-05 24.9999 -1.47543e-06)
(-2.4093e-05 24.9999 -1.57092e-06)
(-2.0183e-05 24.9999 -1.63358e-06)
(-1.28354e-05 24.9999 -1.64857e-06)
(-4.21334e-06 24.9999 -1.59912e-06)
(-2.80866e-06 24.9999 -1.07824e-06)
(-9.34334e-06 24.9999 -1.1627e-06)
(-1.53858e-05 24.9999 -1.2529e-06)
(-1.85758e-05 24.9999 -1.34091e-06)
(-1.87184e-05 24.9999 -1.41432e-06)
(-1.57362e-05 24.9999 -1.45989e-06)
(-1.01023e-05 24.9999 -1.46545e-06)
(-3.35984e-06 24.9999 -1.41649e-06)
(-2.00878e-06 24.9999 -9.00661e-07)
(-6.70165e-06 24.9999 -9.61209e-07)
(-1.10443e-05 24.9999 -1.02657e-06)
(-1.33349e-05 24.9999 -1.0894e-06)
(-1.34551e-05 24.9999 -1.14063e-06)
(-1.13483e-05 24.9999 -1.17046e-06)
(-7.35763e-06 24.9999 -1.16958e-06)
(-2.481e-06 24.9999 -1.1259e-06)
(-1.27562e-06 24.9999 -6.07645e-07)
(-4.13907e-06 24.9999 -6.42004e-07)
(-6.71877e-06 24.9999 -6.81471e-07)
(-8.08974e-06 24.9999 -7.19386e-07)
(-8.16043e-06 24.9999 -7.50053e-07)
(-6.89249e-06 24.9999 -7.67193e-07)
(-4.4979e-06 24.9999 -7.64218e-07)
(-1.53141e-06 24.9999 -7.32137e-07)
(-4.84912e-07 24.9999 -2.17651e-07)
(-1.47161e-06 24.9999 -2.28132e-07)
(-2.3043e-06 24.9999 -2.42053e-07)
(-2.76144e-06 24.9999 -2.5616e-07)
(-2.78102e-06 24.9999 -2.68309e-07)
(-2.34651e-06 24.9999 -2.75943e-07)
(-1.53173e-06 24.9999 -2.7616e-07)
(-5.22394e-07 24.9999 -2.63528e-07)
(-1.04423e-05 25 -2.53904e-06)
(-3.76516e-05 25 -2.83753e-06)
(-6.47354e-05 25 -2.87677e-06)
(-7.9012e-05 25 -2.69594e-06)
(-7.99193e-05 25 -2.36728e-06)
(-6.71782e-05 25 -1.94092e-06)
(-4.28151e-05 25 -1.46274e-06)
(-1.40704e-05 25 -1.01684e-06)
(-1.15959e-05 25 -2.9649e-06)
(-3.95662e-05 25 -3.22164e-06)
(-6.61924e-05 25 -3.23314e-06)
(-8.02931e-05 25 -3.03672e-06)
(-8.08576e-05 25 -2.68541e-06)
(-6.75014e-05 25 -2.21344e-06)
(-4.21011e-05 25 -1.62811e-06)
(-1.33863e-05 25 -9.18669e-07)
(-1.13385e-05 25 -3.21487e-06)
(-3.87089e-05 25 -3.44505e-06)
(-6.46933e-05 25 -3.4564e-06)
(-7.83542e-05 25 -3.26359e-06)
(-7.88233e-05 25 -2.91508e-06)
(-6.57386e-05 25 -2.43239e-06)
(-4.10226e-05 25 -1.8057e-06)
(-1.30759e-05 25 -1.01431e-06)
(-1.07374e-05 25 -3.28965e-06)
(-3.68137e-05 25 -3.51481e-06)
(-6.16075e-05 25 -3.54517e-06)
(-7.46001e-05 25 -3.38595e-06)
(-7.50955e-05 25 -3.07981e-06)
(-6.27588e-05 25 -2.63933e-06)
(-3.9454e-05 25 -2.04453e-06)
(-1.27217e-05 25 -1.26998e-06)
(-1.006e-05 25 -3.21985e-06)
(-3.43679e-05 25 -3.43745e-06)
(-5.73773e-05 25 -3.49277e-06)
(-6.94386e-05 25 -3.37857e-06)
(-6.99555e-05 25 -3.12966e-06)
(-5.86128e-05 25 -2.75134e-06)
(-3.71554e-05 25 -2.2216e-06)
(-1.21288e-05 25 -1.51375e-06)
(-9.37439e-06 24.9999 -3.02288e-06)
(-3.15917e-05 24.9999 -3.22678e-06)
(-5.235e-05 24.9999 -3.30334e-06)
(-6.32542e-05 24.9999 -3.23361e-06)
(-6.37285e-05 25 -3.04294e-06)
(-5.34764e-05 25 -2.73094e-06)
(-3.40858e-05 25 -2.2764e-06)
(-1.12164e-05 25 -1.65885e-06)
(-8.65835e-06 24.9999 -2.74485e-06)
(-2.85827e-05 24.9999 -2.93148e-06)
(-4.68346e-05 24.9999 -3.02256e-06)
(-5.64469e-05 24.9999 -2.99159e-06)
(-5.68156e-05 24.9999 -2.85394e-06)
(-4.76661e-05 25 -2.60442e-06)
(-3.04109e-05 25 -2.22287e-06)
(-1.00237e-05 25 -1.69455e-06)
(-7.85501e-06 24.9999 -2.44991e-06)
(-2.53851e-05 24.9999 -2.62149e-06)
(-4.11088e-05 24.9999 -2.72119e-06)
(-4.9409e-05 24.9999 -2.7213e-06)
(-4.96484e-05 24.9999 -2.62793e-06)
(-4.1581e-05 24.9999 -2.432e-06)
(-2.644e-05 24.9999 -2.11297e-06)
(-8.67713e-06 25 -1.65736e-06)
(-6.92837e-06 24.9999 -2.19707e-06)
(-2.20538e-05 24.9999 -2.3593e-06)
(-3.54143e-05 24.9999 -2.46318e-06)
(-4.24778e-05 24.9999 -2.48554e-06)
(-4.26121e-05 24.9999 -2.42527e-06)
(-3.56044e-05 24.9999 -2.27048e-06)
(-2.25131e-05 24.9999 -1.99929e-06)
(-7.33186e-06 24.9999 -1.59504e-06)
(-5.89546e-06 24.9999 -2.01241e-06)
(-1.86856e-05 24.9999 -2.17006e-06)
(-2.99403e-05 24.9999 -2.27376e-06)
(-3.58926e-05 24.9999 -2.30856e-06)
(-3.59731e-05 24.9999 -2.2695e-06)
(-3.00058e-05 24.9999 -2.14343e-06)
(-1.88852e-05 24.9999 -1.90709e-06)
(-6.1101e-06 24.9999 -1.5388e-06)
(-4.82064e-06 24.9999 -1.88068e-06)
(-1.54002e-05 24.9999 -2.0342e-06)
(-2.47941e-05 24.9999 -2.13285e-06)
(-2.97575e-05 24.9999 -2.17054e-06)
(-2.98348e-05 24.9999 -2.14187e-06)
(-2.4886e-05 24.9999 -2.03427e-06)
(-1.56544e-05 24.9999 -1.82462e-06)
(-5.06024e-06 24.9999 -1.48729e-06)
(-3.78771e-06 24.9999 -1.75331e-06)
(-1.23035e-05 24.9999 -1.89767e-06)
(-1.99946e-05 24.9999 -1.98597e-06)
(-2.40494e-05 24.9999 -2.01882e-06)
(-2.41478e-05 24.9999 -1.99301e-06)
(-2.01831e-05 24.9999 -1.89821e-06)
(-1.27585e-05 24.9999 -1.71317e-06)
(-4.15257e-06 24.9999 -1.41157e-06)
(-2.85771e-06 24.9999 -1.57072e-06)
(-9.43868e-06 24.9999 -1.69727e-06)
(-1.54723e-05 24.9999 -1.77034e-06)
(-1.86448e-05 24.9999 -1.79361e-06)
(-1.87574e-05 24.9999 -1.76702e-06)
(-1.57303e-05 24.9999 -1.68325e-06)
(-1.0033e-05 24.9999 -1.52476e-06)
(-3.30669e-06 24.9999 -1.26772e-06)
(-2.04381e-06 24.9999 -1.28203e-06)
(-6.76981e-06 24.9999 -1.38076e-06)
(-1.11055e-05 24.9999 -1.43474e-06)
(-1.33822e-05 24.9999 -1.44748e-06)
(-1.34798e-05 24.9999 -1.42105e-06)
(-1.13395e-05 24.9999 -1.35105e-06)
(-7.30072e-06 24.9999 -1.22418e-06)
(-2.4383e-06 24.9999 -1.02158e-06)
(-1.29517e-06 24.9999 -8.62052e-07)
(-4.17834e-06 24.9999 -9.24762e-07)
(-6.75499e-06 24.9999 -9.57721e-07)
(-8.11748e-06 24.9999 -9.62568e-07)
(-8.17441e-06 24.9999 -9.41643e-07)
(-6.88539e-06 24.9999 -8.92381e-07)
(-4.45902e-06 24.9999 -8.05718e-07)
(-1.50238e-06 24.9999 -6.67684e-07)
(-4.90695e-07 24.9999 -3.13926e-07)
(-1.48427e-06 24.9999 -3.35175e-07)
(-2.31753e-06 24.9999 -3.47031e-07)
(-2.77284e-06 24.9999 -3.4941e-07)
(-2.78835e-06 24.9999 -3.42909e-07)
(-2.34653e-06 24.9999 -3.26232e-07)
(-1.51855e-06 24.9999 -2.94512e-07)
(-5.1148e-07 24.9999 -2.37876e-07)
(-1.06623e-05 25 -3.27351e-06)
(-3.78783e-05 25 -4.31273e-06)
(-6.4578e-05 25 -4.21685e-06)
(-7.85732e-05 25 -3.59182e-06)
(-7.93005e-05 25 -2.62082e-06)
(-6.64561e-05 25 -1.45141e-06)
(-4.20867e-05 25 -2.20639e-07)
(-1.37199e-05 25 8.99022e-07)
(-1.17871e-05 25 -4.56028e-06)
(-3.97285e-05 25 -5.41604e-06)
(-6.59628e-05 25 -5.11611e-06)
(-7.97689e-05 25 -4.19243e-06)
(-8.01231e-05 25 -2.85064e-06)
(-6.66076e-05 25 -1.27069e-06)
(-4.10539e-05 25 4.41707e-07)
(-1.28219e-05 25 2.47044e-06)
(-1.15179e-05 25 -4.96479e-06)
(-3.88589e-05 25 -5.84706e-06)
(-6.44582e-05 25 -5.52597e-06)
(-7.78154e-05 25 -4.56772e-06)
(-7.80581e-05 25 -3.17898e-06)
(-6.47784e-05 25 -1.52858e-06)
(-3.98624e-05 25 2.82549e-07)
(-1.24439e-05 25 2.26267e-06)
(-1.0922e-05 25 -5.13693e-06)
(-3.69846e-05 25 -6.06963e-06)
(-6.14099e-05 25 -5.78858e-06)
(-7.41084e-05 25 -4.89018e-06)
(-7.43792e-05 25 -3.56885e-06)
(-6.18356e-05 25 -1.97641e-06)
(-3.83135e-05 25 -2.11804e-07)
(-1.2096e-05 25 1.64915e-06)
(-1.02438e-05 25 -5.09878e-06)
(-3.45572e-05 25 -6.03823e-06)
(-5.72312e-05 25 -5.81153e-06)
(-6.9019e-05 25 -5.01193e-06)
(-6.93218e-05 25 -3.81224e-06)
(-5.7778e-05 25 -2.34763e-06)
(-3.61069e-05 25 -7.12295e-07)
(-1.15495e-05 25 9.77427e-07)
(-9.54688e-06 24.9999 -4.83657e-06)
(-3.17853e-05 24.9999 -5.71395e-06)
(-5.22528e-05 24.9999 -5.53318e-06)
(-6.29111e-05 24.9999 -4.84341e-06)
(-6.3188e-05 25 -3.78908e-06)
(-5.27493e-05 25 -2.48815e-06)
(-3.31654e-05 25 -1.02962e-06)
(-1.07074e-05 25 4.6026e-07)
(-8.81109e-06 24.9999 -4.38308e-06)
(-2.87659e-05 24.9999 -5.13689e-06)
(-4.67766e-05 24.9999 -4.98816e-06)
(-5.61757e-05 24.9999 -4.40578e-06)
(-5.63669e-05 24.9999 -3.50308e-06)
(-4.70482e-05 25 -2.37929e-06)
(-2.96221e-05 25 -1.11348e-06)
(-9.58695e-06 25 1.8277e-07)
(-7.98525e-06 24.9999 -3.82222e-06)
(-2.555e-05 24.9999 -4.42445e-06)
(-4.108e-05 24.9999 -4.2986e-06)
(-4.91999e-05 24.9999 -3.81486e-06)
(-4.92825e-05 24.9999 -3.05768e-06)
(-4.10618e-05 24.9999 -2.10689e-06)
(-2.57649e-05 24.9999 -1.02574e-06)
(-8.301e-06 25 1.03963e-07)
(-7.03942e-06 24.9999 -3.2626e-06)
(-2.22005e-05 24.9999 -3.72562e-06)
(-3.54057e-05 24.9999 -3.62053e-06)
(-4.23185e-05 24.9999 -3.22366e-06)
(-4.23147e-05 24.9999 -2.5966e-06)
(-3.51663e-05 24.9999 -1.80094e-06)
(-2.19256e-05 24.9999 -8.81413e-07)
(-7.0002e-06 24.9999 1.12382e-07)
(-5.99355e-06 24.9999 -2.7904e-06)
(-1.88188e-05 24.9999 -3.15476e-06)
(-2.99445e-05 24.9999 -3.07215e-06)
(-3.57697e-05 24.9999 -2.74869e-06)
(-3.57287e-05 24.9999 -2.23141e-06)
(-2.96313e-05 24.9999 -1.56672e-06)
(-1.83638e-05 24.9999 -7.82189e-07)
(-5.81075e-06 24.9999 9.62359e-08)
(-4.91139e-06 24.9999 -2.43661e-06)
(-1.55245e-05 24.9999 -2.74905e-06)
(-2.48049e-05 24.9999 -2.69016e-06)
(-2.96589e-05 24.9999 -2.42669e-06)
(-2.96294e-05 24.9999 -1.99834e-06)
(-2.4562e-05 24.9999 -1.44061e-06)
(-1.51884e-05 24.9999 -7.69044e-07)
(-4.78869e-06 24.9999 7.38385e-11)
(-3.87296e-06 24.9999 -2.16958e-06)
(-1.24198e-05 24.9999 -2.46171e-06)
(-2.00068e-05 24.9999 -2.42421e-06)
(-2.39662e-05 24.9999 -2.20883e-06)
(-2.39724e-05 24.9999 -1.85271e-06)
(-1.99031e-05 24.9999 -1.38429e-06)
(-1.23488e-05 24.9999 -8.12992e-07)
(-3.91174e-06 24.9999 -1.57187e-07)
(-2.9352e-06 24.9999 -1.9154e-06)
(-9.54295e-06 24.9999 -2.19244e-06)
(-1.54822e-05 24.9999 -2.16979e-06)
(-1.85725e-05 24.9999 -1.99411e-06)
(-1.86081e-05 24.9999 -1.69998e-06)
(-1.54939e-05 24.9999 -1.31143e-06)
(-9.68675e-06 24.9999 -8.36443e-07)
(-3.10281e-06 24.9999 -3.00876e-07)
(-2.10751e-06 24.9999 -1.58797e-06)