/*--------------------------------*- C++ -*----------------------------------*\
  =========                 |
  \\      /  F ield         | OpenFOAM: The Open Source CFD Toolbox
   \\    /   O peration     | Website:  https://openfoam.org
    \\  /    A nd           | Version:  6
     \\/     M anipulation  |
\*---------------------------------------------------------------------------*/
FoamFile
{
    version     2.0;
    format      ascii;
    class       volScalarField;
    location    "0.2";
    object      alpha_exh;
}
// * * * * * * * * * * * * * * * * * * * * * * * * * * * * * * * * * * * * * //

dimensions      [0 0 0 0 0 0 0];

internalField   nonuniform List<scalar> 
3029
(
0.00109191
0.00150838
-0.000429832
0.0162153
0.200632
0.0162152
-0.000429561
0.00150849
0.00109124
0.00143033
0.00199131
0.000505144
0.0184845
0.213134
0.0184848
0.00050558
0.00199179
0.00143024
0.00322782
0.00465141
-0.000396303
0.0423871
0.26472
0.0423875
-0.000394938
0.00465292
0.00322794
0.0117851
0.0170107
0.0175112
0.10443
0.346957
0.10443
0.0175135
0.0170137
0.0117855
0.047144
0.0615519
0.0817431
0.210078
0.448038
0.210077
0.081746
0.0615564
0.047145
0.12761
0.152699
0.195954
0.344472
0.554403
0.34447
0.195957
0.152705
0.127612
0.249756
0.281557
0.339681
0.48488
0.654689
0.484878
0.339683
0.281563
0.249758
0.392493
0.425165
0.486711
0.613143
0.741726
0.613141
0.486713
0.425171
0.392495
0.532992
0.562165
0.618563
0.720066
0.812674
0.720063
0.618565
0.56217
0.532995
0.656199
0.679854
0.726858
0.803663
0.867786
0.803661
0.726859
0.679858
0.656201
0.75585
0.773768
0.81046
0.866027
0.908995
0.866025
0.810461
0.773771
0.755852
0.831786
0.84473
0.872092
0.91086
0.938736
0.910859
0.872093
0.844733
0.831788
0.886996
0.896062
0.915866
0.942646
0.96092
0.942645
0.915867
0.896064
0.886997
0.925585
0.932145
0.946863
0.961982
0.968083
0.961981
0.946863
0.932146
0.925586
0.951696
0.955343
0.962504
0.990963
1.03093
0.990962
0.962504
0.955344
0.951696
0.967895
0.974734
1.0094
0.941229
0.591562
0.94123
1.0094
0.974735
0.967895
0.981809
0.992814
0.874115
0.319006
8.04449e-05
0.319008
0.874117
0.992814
0.981809
0.994978
0.982627
0.662051
0.0513209
-0.0254081
0.0513229
0.662054
0.982627
0.994978
1.00347
0.963518
0.546794
-0.0224324
-0.0341027
-0.0224303
0.546798
0.96352
1.00347
1.007
0.949144
0.507985
-0.0270404
-0.0346943
-0.027038
0.50799
0.949146
1.007
1.00712
0.94128
0.513077
0.00367043
-0.0228768
0.00367322
0.513083
0.941282
1.00712
1.00546
0.938335
0.542276
0.0614702
0.0104112
0.0614733
0.542282
0.938337
1.00546
1.00318
0.938725
0.584152
0.140287
0.068806
0.14029
0.584158
0.938727
1.00318
1.00096
0.941299
0.631541
0.232233
0.148368
0.232236
0.631546
0.941301
1.00096
0.9991
0.945207
0.679733
0.329411
0.241275
0.329414
0.679737
0.945209
0.9991
0.997729
0.949798
0.725705
0.425413
0.339483
0.425415
0.725709
0.949798
0.997729
0.996833
0.954562
0.76763
0.515705
0.436412
0.515707
0.767633
0.954562
0.996833
0.99632
0.959123
0.804606
0.59748
0.52732
0.597482
0.804608
0.959124
0.996321
0.99604
0.96329
0.83664
0.669535
0.609334
0.669536
0.836642
0.96329
0.996041
0.995822
0.967152
0.864702
0.732026
0.681219
0.732026
0.864703
0.967152
0.995823
0.995798
0.971706
0.891581
0.789413
0.748061
0.789413
0.891581
0.971706
0.995799
0.996543
0.978283
0.91464
0.82738
0.789034
0.82738
0.91464
0.978282
0.996543
0.997999
0.987468
0.941235
0.86132
0.818419
0.86132
0.941235
0.987468
0.998
0.999797
0.997289
0.976413
0.920641
0.876992
0.920641
0.976413
0.997289
0.999797
0.00150835
0.00977037
0.0106868
0.0838443
0.316632
0.083845
0.0106885
0.00977142
0.00150817
0.00199133
0.0105089
0.011841
0.0946211
0.336166
0.0946216
0.0118431
0.0105107
0.00199184
0.00465147
0.0177549
0.0301132
0.141546
0.390652
0.141547
0.0301158
0.017758
0.00465313
0.0170108
0.0419958
0.0802152
0.227633
0.47049
0.227633
0.0802183
0.0420005
0.0170142
0.061552
0.103839
0.173325
0.343967
0.562259
0.343967
0.173328
0.103845
0.0615573
0.1527
0.20851
0.299964
0.472014
0.653439
0.472013
0.299967
0.208517
0.152706
0.281557
0.341622
0.439305
0.594302
0.735534
0.5943
0.439308
0.341629
0.281565
0.425166
0.480974
0.571711
0.699966
0.804382
0.699964
0.571714
0.480981
0.425173
0.562165
0.608881
0.685414
0.78502
0.859154
0.785018
0.685416
0.608887
0.562172
0.679854
0.716084
0.776321
0.850038
0.900984
0.850036
0.776322
0.716089
0.67986
0.773768
0.800282
0.845305
0.897834
0.931897
0.897832
0.845306
0.800285
0.773773
0.84473
0.863272
0.895607
0.931877
0.954056
0.931876
0.895607
0.863274
0.844734
0.896063
0.90859
0.931081
0.955549
0.969985
0.955548
0.931081
0.908591
0.896065
0.932145
0.940212
0.955797
0.971798
0.978513
0.971797
0.955797
0.940213
0.932146
0.955343
0.961353
0.970243
0.980174
0.997953
0.980174
0.970243
0.961354
0.955345
0.974734
0.974957
0.989561
1.0139
0.955791
1.0139
0.989561
0.974957
0.974735
0.992814
0.989258
0.981457
0.776852
0.409676
0.776854
0.981457
0.989258
0.992815
0.982627
0.998359
0.921433
0.501603
0.128668
0.501605
0.921434
0.998359
0.982627
0.963519
0.998533
0.867923
0.372249
0.0531523
0.372253
0.867925
0.998533
0.963519
0.949145
0.993298
0.837641
0.336712
0.0537227
0.336716
0.837644
0.993298
0.949145
0.941281
0.986301
0.826118
0.351655
0.0913506
0.351659
0.826122
0.986301
0.941281
0.938335
0.979756
0.826763
0.394275
0.153706
0.39428
0.826767
0.979756
0.938336
0.938726
0.974723
0.834889
0.451733
0.23296
0.451737
0.834893
0.974724
0.938727
0.9413
0.971508
0.84738
0.51592
0.321747
0.515924
0.847384
0.971509
0.941301
0.945208
0.969989
0.862178
0.581461
0.413596
0.581464
0.862181
0.969989
0.945209
0.949799
0.969836
0.877858
0.644993
0.503682
0.644996
0.87786
0.969836
0.949799
0.954563
0.970629
0.893437
0.704725
0.589149
0.704727
0.893438
0.97063
0.954563
0.959124
0.971907
0.908338
0.760208
0.669055
0.760209
0.908339
0.971907
0.959125
0.963291
0.97322
0.922579
0.812467
0.744468
0.812468
0.922579
0.97322
0.963291
0.967153
0.974052
0.936428
0.863172
0.817179
0.863172
0.936427
0.974052
0.967154
0.971707
0.976071
0.958575
0.923762
0.900956
0.923762
0.958574
0.976071
0.971708
0.978283
0.979244
0.96605
0.941296
0.924964
0.941296
0.966049
0.979243
0.978284
0.987469
0.986541
0.965965
0.921276
0.89426
0.921276
0.965965
0.986541
0.987469
0.997289
0.997575
0.982704
0.932798
0.891995
0.932798
0.982703
0.997575
0.997289
-0.00042988
0.0106869
0.0753898
0.279138
0.540925
0.279137
0.0753918
0.0106887
-0.000429836
0.000505208
0.0118413
0.0863664
0.303926
0.563419
0.303925
0.0863687
0.011844
0.000505796
-0.000396015
0.0301137
0.134934
0.368609
0.611065
0.368608
0.134936
0.0301177
-0.000394028
0.0175119
0.0802161
0.222733
0.461151
0.672998
0.46115
0.222734
0.0802212
0.0175158
0.0817442
0.173326
0.33978
0.564385
0.737972
0.564384
0.33978
0.173331
0.0817499
0.195955
0.299966
0.468005
0.663467
0.798045
0.663466
0.468005
0.299971
0.195962
0.339682
0.439307
0.590635
0.749527
0.849205
0.749526
0.590635
0.439312
0.339689
0.486712
0.571713
0.696916
0.819183
0.89034
0.819182
0.696916
0.571717
0.486719
0.618565
0.685415
0.782649
0.872738
0.922042
0.872736
0.782649
0.685418
0.61857
0.726859
0.776322
0.848238
0.912348
0.94568
0.912348
0.848238
0.776324
0.726863
0.810461
0.845306
0.896442
0.940768
0.96283
0.940767
0.896442
0.845307
0.810465
0.872093
0.895607
0.930757
0.960645
0.974973
0.960645
0.930756
0.895608
0.872096
0.915867
0.931081
0.954517
0.974205
0.983356
0.974204
0.954516
0.931082
0.915868
0.946864
0.955797
0.970651
0.983559
0.989508
0.983559
0.97065
0.955798
0.946865
0.962505
0.970243
0.980979
0.987848
0.989357
0.987847
0.980978
0.970243
0.962505
1.0094
0.989561
0.988061
0.999189
1.01826
0.999189
0.988061
0.989561
1.0094
0.874115
0.981457
0.994802
0.992076
0.920042
0.992076
0.994802
0.981457
0.874116
0.662052
0.921433
0.995028
0.937125
0.74545
0.937126
0.995028
0.921434
0.662053
0.546795
0.867923
0.988587
0.887913
0.650226
0.887915
0.988587
0.867923
0.546797
0.507986
0.837642
0.979452
0.860498
0.621272
0.8605
0.979452
0.837642
0.507988
0.513078
0.826119
0.970471
0.850531
0.629887
0.850534
0.970472
0.82612
0.513081
0.542278
0.826765
0.963195
0.851593
0.657545
0.851596
0.963196
0.826765
0.542281
0.584154
0.834891
0.958252
0.859309
0.693937
0.859312
0.958253
0.834892
0.584156
0.631543
0.847382
0.955707
0.870781
0.73327
0.870783
0.955708
0.847383
0.631545
0.679735
0.862181
0.955294
0.884306
0.772453
0.884308
0.955294
0.862181
0.679737
0.725708
0.87786
0.956583
0.898882
0.810056
0.898883
0.956583
0.877861
0.725709
0.767633
0.893439
0.959116
0.91399
0.845741
0.913991
0.959117
0.89344
0.767634
0.804609
0.90834
0.962527
0.929632
0.880093
0.929632
0.962527
0.908341
0.80461
0.836643
0.922581
0.966801
0.946565
0.914715
0.946565
0.966801
0.922582
0.836643
0.864704
0.936429
0.973145
0.967121
0.952581
0.96712
0.973145
0.93643
0.864705
0.891583
0.958576
0.993492
0.997209
0.998027
0.997208
0.993491
0.958575
0.891583
0.914642
0.966051
0.966051
0.914642
0.941237
0.965966
0.976226
0.951896
0.924401
0.951897
0.976225
0.965966
0.941237
0.976414
0.982704
0.983527
0.951129
0.914364
0.951129
0.983527
0.982704
0.976414
0.986479
0.956045
0.919278
0.956046
0.986477
0.987634
0.960109
0.925905
0.960111
0.987633
0.988443
0.963394
0.932047
0.963397
0.988442
0.98912
0.966239
0.937629
0.966242
0.989119
0.989749
0.96882
0.942743
0.968823
0.989748
0.990347
0.971202
0.947455
0.971205
0.990346
0.99092
0.973414
0.951804
0.973417
0.99092
0.991469
0.975471
0.955819
0.975474
0.991468
0.991993
0.977382
0.959521
0.977385
0.991993
0.9925
0.979172
0.962961
0.979175
0.9925
0.992952
0.980746
0.965971
0.980749
0.992952
0.993717
0.983034
0.970201
0.983037
0.993717
0.0162158
0.0838457
0.279139
0.586534
0.799136
0.586531
0.279139
0.083848
0.0162161
0.0184856
0.0946231
0.303927
0.611345
0.812581
0.611343
0.303927
0.094626
0.0184873
0.0423891
0.141549
0.36861
0.660887
0.836964
0.660885
0.368609
0.141553
0.042392
0.104433
0.227636
0.461153
0.721977
0.865844
0.721976
0.461151
0.22764
0.104437
0.210082
0.343971
0.564386
0.782899
0.894199
0.782899
0.564384
0.343974
0.210087
0.344476
0.472017
0.663468
0.83673
0.919245
0.836729
0.663465
0.47202
0.344481
0.484884
0.594305
0.749528
0.880806
0.939962
0.880805
0.749526
0.594306
0.484889
0.613147
0.699968
0.819184
0.915058
0.956342
0.915057
0.819181
0.699969
0.613151
0.720069
0.785022
0.872738
0.940685
0.968866
0.940685
0.872735
0.785022
0.720072
0.803665
0.85004
0.912349
0.959309
0.978188
0.959309
0.912347
0.850039
0.803668
0.866029
0.897835
0.940768
0.972527
0.984968
0.972526
0.940766
0.897834
0.86603
0.910862
0.931878
0.960645
0.981713
0.989796
0.981713
0.960644
0.931878
0.910863
0.942647
0.95555
0.974205
0.987961
0.993144
0.987961
0.974204
0.955549
0.942648
0.961982
0.971798
0.983559
0.992179
0.995567
0.992179
0.983558
0.971798
0.961983
0.990963
0.980174
0.987848
0.99484
0.996504
0.99484
0.987847
0.980174
0.990963
0.94123
1.0139
0.999189
0.996035
0.999143
0.996035
0.999189
1.0139
0.941231
0.319006
0.776853
0.992076
1.00266
1.00705
1.00266
0.992075
0.776853
0.319008
0.0513212
0.501603
0.937125
1.00846
1.0011
1.00846
0.937125
0.501604
0.0513227
-0.0224321
0.37225
0.887914
1.00794
0.989342
1.00794
0.887913
0.372251
-0.0224305
-0.0270401
0.336713
0.860499
1.00311
0.979619
1.00311
0.860498
0.336714
-0.0270381
0.0036707
0.351656
0.850533
0.996776
0.97337
0.996776
0.850532
0.351657
0.003673
0.0614705
0.394277
0.851595
0.990751
0.969987
0.990751
0.851594
0.394278
0.0614729
0.140287
0.451735
0.859311
0.985952
0.968763
0.985952
0.859311
0.451735
0.14029
0.232234
0.515922
0.870783
0.982731
0.969161
0.982731
0.870783
0.515922
0.232236
0.329411
0.581463
0.884309
0.981037
0.970773
0.981037
0.884308
0.581464
0.329413
0.425413
0.644996
0.898884
0.980703
0.97333
0.980703
0.898884
0.644996
0.425414
0.515706
0.704727
0.913992
0.981562
0.976685
0.981562
0.913992
0.704727
0.515707
0.597481
0.76021
0.929634
0.983539
0.980829
0.983538
0.929634
0.76021
0.597481
0.669536
0.812469
0.946567
0.986753
0.985905
0.986753
0.946567
0.812469
0.669536
0.732026
0.863174
0.967122
0.991662
0.992067
0.991661
0.967122
0.863174
0.732026
0.789414
0.923764
0.997209
0.99764
0.998074
0.99764
0.997209
0.923764
0.789414
0.827381
0.941297
0.941298
0.827381
0.86132
0.921276
0.951897
0.96412
0.951805
0.96412
0.951897
0.921277
0.86132
0.920641
0.932798
0.95113
0.962031
0.947423
0.962032
0.951129
0.932798
0.920641
0.956046
0.963205
0.948764
0.963207
0.956044
0.96011
0.965369
0.952008
0.965371
0.960108
0.963395
0.96768
0.955501
0.967683
0.963393
0.96624
0.969915
0.958865
0.969918
0.966239
0.96882
0.972032
0.96202
0.972036
0.968819
0.971203
0.974026
0.964961
0.97403
0.971202
0.973415
0.975898
0.967697
0.975902
0.973414
0.975471
0.977655
0.970238
0.977658
0.975471
0.977382
0.979299
0.972594
0.979302
0.977382
0.979172
0.980851
0.974798
0.980855
0.979172
0.980746
0.982221
0.976732
0.982225
0.980746
0.983034
0.984258
0.97953
0.984261
0.983034
0.200633
0.316635
0.540926
0.799135
0.931397
0.799133
0.540926
0.316636
0.200634
0.213136
0.336169
0.563421
0.81258
0.935547
0.812578
0.56342
0.336172
0.213138
0.264724
0.390656
0.611066
0.836964
0.942921
0.836962
0.611066
0.390658
0.264726
0.34696
0.470493
0.672999
0.865843
0.951609
0.865843
0.673
0.470496
0.346964
0.448041
0.562262
0.737972
0.894198
0.960341
0.894198
0.737973
0.562266
0.448045
0.554407
0.653442
0.798045
0.919245
0.9684
0.919243
0.798045
0.653445
0.55441
0.654692
0.735536
0.849205
0.939961
0.975448
0.939958
0.849202
0.735539
0.654695
0.741729
0.804384
0.89034
0.956342
0.981365
0.956337
0.890336
0.804386
0.741732
0.812676
0.859155
0.922042
0.968866
0.986164
0.968861
0.922037
0.859157
0.812679
0.867787
0.900985
0.94568
0.978188
0.989939
0.978183
0.945675
0.900985
0.86779
0.908996
0.931898
0.96283
0.984968
0.992828
0.984964
0.962825
0.931898
0.908998
0.938737
0.954057
0.974973
0.989795
0.994983
0.989792
0.974969
0.954056
0.938738
0.960921
0.969986
0.983356
0.993144
0.996547
0.993142
0.983352
0.969985
0.960922
0.968084
0.978514
0.989508
0.995567
0.997675
0.995565
0.989505
0.978513
0.968084
1.03093
0.997953
0.989357
0.996504
0.998513
0.996502
0.989355
0.997952
1.03093
0.591563
0.955791
1.01826
0.999143
0.998412
0.999142
1.01826
0.955791
0.591564
8.05192e-05
0.409677
0.920042
1.00705
1.00125
1.00705
0.920041
0.409677
8.102e-05
-0.0254082
0.128668
0.74545
1.0011
1.007
1.0011
0.745449
0.128669
-0.0254078
-0.0341028
0.0531524
0.650226
0.989342
1.01057
0.989341
0.650225
0.0531531
-0.0341022
-0.0346945
0.0537226
0.621273
0.979619
1.01069
0.979618
0.621271
0.0537234
-0.0346936
-0.0228772
0.0913503
0.629888
0.97337
1.00846
0.973369
0.629886
0.0913511
-0.022876
0.0104105
0.153706
0.657546
0.969987
1.00525
0.969986
0.657544
0.153706
0.0104119
0.0688048
0.23296
0.693938
0.968763
1.00198
0.968763
0.693937
0.23296
0.0688062
0.148367
0.321746
0.733272
0.969162
0.999222
0.969161
0.73327
0.321746
0.148368
0.241273
0.413595
0.772454
0.970774
0.997143
0.970773
0.772453
0.413595
0.241274
0.339481
0.503681
0.810058
0.973331
0.995736
0.97333
0.810057
0.503681
0.339481
0.436409
0.589148
0.845742
0.976685
0.994941
0.976685
0.845741
0.589148
0.43641
0.527318
0.669054
0.880094
0.98083
0.994691
0.98083
0.880094
0.669054
0.527318
0.609332
0.744467
0.914716
0.985905
0.99496
0.985905
0.914715
0.744467
0.609332
0.681217
0.817179
0.952582
0.992068
0.995859
0.992068
0.952582
0.817179
0.681217
0.74806
0.900956
0.998028
0.998074
0.9978
0.998074
0.998028
0.900956
0.748059
0.789032
0.924964
0.924965
0.789032
0.818417
0.89426
0.9244
0.951805
0.96662
0.951805
0.9244
0.89426
0.818417
0.876991
0.891994
0.914363
0.947423
0.96508
0.947422
0.914363
0.891994
0.876991
0.919278
0.948764
0.96563
0.948761
0.919276
0.925905
0.952008
0.967265
0.952003
0.925902
0.932047
0.955501
0.969215
0.955497
0.932044
0.937629
0.958865
0.971194
0.958861
0.937627
0.942743
0.96202
0.973108
0.962017
0.942741
0.947454
0.964961
0.97493
0.964958
0.947453
0.951803
0.967696
0.976654
0.967693
0.951802
0.955818
0.970238
0.978282
0.970235
0.955817
0.959521
0.972594
0.979815
0.972592
0.95952
0.962961
0.974798
0.981271
0.974796
0.96296
0.965971
0.976732
0.98256
0.97673
0.96597
0.970201
0.97953
0.984525
0.979528
0.9702
0.0162161
0.0838473
0.279138
0.58653
0.799132
0.586529
0.279139
0.0838482
0.0162161
0.0184864
0.0946244
0.303927
0.611342
0.812577
0.611341
0.303927
0.0946264
0.0184873
0.04239
0.14155
0.368609
0.660883
0.836962
0.660881
0.368609
0.141551
0.0423917
0.104433
0.227636
0.461151
0.721974
0.865843
0.721973
0.46115
0.227636
0.104436
0.210081
0.34397
0.564384
0.782897
0.894197
0.782895
0.564384
0.34397
0.210084
0.344474
0.472016
0.663466
0.836728
0.919242
0.836723
0.663465
0.472016
0.344478
0.484881
0.594302
0.749526
0.880804
0.939957
0.880796
0.749523
0.594303
0.484885
0.613143
0.699966
0.819182
0.915056
0.956336
0.915046
0.819178
0.699966
0.613147
0.720065
0.785019
0.872736
0.940684
0.968861
0.940673
0.872731
0.78502
0.720069
0.803662
0.850037
0.912347
0.959308
0.978183
0.959298
0.912341
0.850038
0.803666
0.866026
0.897833
0.940767
0.972526
0.984963
0.972516
0.940761
0.897833
0.866029
0.91086
0.931877
0.960644
0.981713
0.989792
0.981704
0.960639
0.931877
0.910862
0.942645
0.955549
0.974204
0.987961
0.993142
0.987955
0.974199
0.955549
0.942647
0.961982
0.971797
0.983559
0.992179
0.995565
0.992174
0.983555
0.971797
0.961983
0.990962
0.980174
0.987847
0.99484
0.996502
0.994836
0.987844
0.980174
0.990963
0.941231
1.0139
0.999189
0.996035
0.999142
0.996032
0.999187
1.0139
0.941231
0.319008
0.776854
0.992076
1.00266
1.00705
1.00266
0.992074
0.776854
0.319009
0.0513229
0.501606
0.937126
1.00846
1.0011
1.00846
0.937124
0.501605
0.0513234
-0.0224304
0.372253
0.887915
1.00794
0.989342
1.00794
0.887913
0.372252
-0.0224298
-0.0270384
0.336716
0.8605
1.00311
0.979618
1.00311
0.860498
0.336715
-0.0270376
0.00367235
0.351659
0.850534
0.996776
0.97337
0.996775
0.850531
0.351658
0.00367326
0.0614718
0.394279
0.851596
0.990751
0.969987
0.99075
0.851593
0.394278
0.0614728
0.140288
0.451735
0.859312
0.985952
0.968763
0.985951
0.859309
0.451734
0.140289
0.232234
0.515921
0.870783
0.982731
0.969162
0.982731
0.870781
0.515921
0.232234
0.32941
0.581462
0.884308
0.981037
0.970774
0.981037
0.884306
0.581461
0.329411
0.425411
0.644993
0.898882
0.980703
0.973331
0.980703
0.898882
0.644993
0.425412
0.515703
0.704724
0.913991
0.981562
0.976686
0.981562
0.91399
0.704724
0.515704
0.597478
0.760206
0.929632
0.983539
0.98083
0.983539
0.929632
0.760206
0.597478
0.669532
0.812466
0.946565
0.986753
0.985906
0.986753
0.946565
0.812466
0.669532
0.732023
0.863171
0.96712
0.991661
0.992068
0.991662
0.967121
0.863171
0.732023
0.78941
0.923761
0.997208
0.99764
0.998074
0.99764
0.997209
0.923762
0.78941
0.827378
0.941295
0.941296
0.827377
0.861317
0.921274
0.951896
0.96412
0.951805
0.96412
0.951896
0.921275
0.861317
0.920639
0.932797
0.951128
0.962031
0.947422
0.96203
0.951128
0.932797
0.920639
0.956045
0.963206
0.948761
0.963202
0.956044
0.96011
0.96537
0.952003
0.965364
0.960108
0.963396
0.967682
0.955497
0.967676
0.963393
0.966242
0.969918
0.958861
0.969912
0.966238
0.968822
0.972035
0.962017
0.972029
0.968819
0.971205
0.974029
0.964958
0.974023
0.971202
0.973417
0.975902
0.967693
0.975896
0.973414
0.975473
0.977658
0.970235
0.977652
0.975471
0.977384
0.979302
0.972592
0.979297
0.977381
0.979174
0.980854
0.974795
0.980849
0.979172
0.980748
0.982225
0.97673
0.98222
0.980746
0.983037
0.984261
0.979528
0.984256
0.983034
-0.000429249
0.0106902
0.075394
0.27914
0.540926
0.27914
0.075395
0.0106907
-0.000429398
0.000506033
0.0118452
0.0863712
0.303927
0.56342
0.303928
0.0863726
0.0118462
0.000506192
-0.000393616
0.0301186
0.134938
0.368609
0.611065
0.368609
0.13494
0.0301199
-0.000393092
0.017516
0.0802217
0.222737
0.461151
0.672999
0.461151
0.222737
0.0802232
0.0175171
0.0817493
0.173331
0.339782
0.564383
0.737973
0.564384
0.339783
0.173333
0.081751
0.19596
0.299971
0.468006
0.663464
0.798044
0.663465
0.468006
0.299973
0.195962
0.339687
0.439311
0.590636
0.749525
0.849202
0.749524
0.590635
0.439314
0.339689
0.486716
0.571716
0.696917
0.81918
0.890335
0.819178
0.696916
0.571718
0.486719
0.618568
0.685418
0.782649
0.872735
0.922037
0.872731
0.782648
0.68542
0.61857
0.726861
0.776324
0.848238
0.912346
0.945675
0.912341
0.848237
0.776325
0.726863
0.810463
0.845306
0.896442
0.940765
0.962825
0.940761
0.89644
0.845308
0.810464
0.872094
0.895608
0.930756
0.960644
0.974969
0.960639
0.930755
0.895609
0.872095
0.915867
0.931082
0.954516
0.974204
0.983352
0.974199
0.954515
0.931082
0.915868
0.946864
0.955797
0.97065
0.983558
0.989505
0.983555
0.970649
0.955798
0.946865
0.962504
0.970243
0.980978
0.987847
0.989354
0.987844
0.980977
0.970243
0.962505
1.0094
0.989561
0.988061
0.999189
1.01826
0.999186
0.98806
0.989561
1.0094
0.874117
0.981457
0.994802
0.992075
0.920041
0.992074
0.994801
0.981457
0.874117
0.662054
0.921435
0.995028
0.937125
0.745449
0.937124
0.995027
0.921434
0.662055
0.546798
0.867925
0.988587
0.887913
0.650225
0.887913
0.988587
0.867924
0.546798
0.507989
0.837644
0.979452
0.860498
0.621272
0.860499
0.979451
0.837643
0.507989
0.513082
0.826121
0.970472
0.850532
0.629886
0.850533
0.970471
0.82612
0.513082
0.542281
0.826766
0.963196
0.851594
0.657545
0.851595
0.963195
0.826765
0.542281
0.584155
0.834892
0.958253
0.85931
0.693938
0.859311
0.958252
0.834891
0.584155
0.631544
0.847382
0.955707
0.870782
0.733271
0.870783
0.955707
0.847382
0.631543
0.679735
0.862179
0.955294
0.884308
0.772454
0.884308
0.955294
0.862179
0.679734
0.725706
0.877858
0.956583
0.898883
0.810058
0.898884
0.956583
0.877858
0.725706
0.76763
0.893436
0.959116
0.913992
0.845742
0.913992
0.959116
0.893436
0.76763
0.804605
0.908337
0.962527
0.929633
0.880095
0.929634
0.962527
0.908338
0.804605
0.836639
0.922578
0.9668
0.946566
0.914716
0.946566
0.9668
0.922579
0.836639
0.8647
0.936426
0.973144
0.967122
0.952583
0.967122
0.973145
0.936427
0.8647
0.891579
0.958573
0.993491
0.997209
0.998028
0.997209
0.993492
0.958574
0.891579
0.914638
0.966049
0.96605
0.914639
0.941234
0.965964
0.976224
0.951896
0.9244
0.951897
0.976225
0.965965
0.941234
0.976413
0.982703
0.983526
0.951128
0.914362
0.951129
0.983527
0.982703
0.976413
0.986477
0.956043
0.919275
0.956044
0.986478
0.987633
0.960107
0.925902
0.960108
0.987634
0.988441
0.963392
0.932044
0.963393
0.988442
0.989118
0.966238
0.937626
0.966239
0.989119
0.989748
0.968819
0.942741
0.96882
0.989748
0.990346
0.971201
0.947452
0.971202
0.990347
0.990919
0.973413
0.951801
0.973414
0.99092
0.991468
0.97547
0.955817
0.975471
0.991468
0.991993
0.977381
0.959519
0.977382
0.991993
0.9925
0.979171
0.96296
0.979172
0.9925
0.992951
0.980746
0.96597
0.980746
0.992951
0.993717
0.983034
0.9702
0.983034
0.993717
0.0015088
0.00977255
0.0106901
0.0838489
0.316637
0.0838486
0.0106906
0.00977285
0.00150866
0.00199222
0.0105121
0.0118456
0.0946269
0.336172
0.0946268
0.0118462
0.0105126
0.0019924
0.00465391
0.0177598
0.0301196
0.141553
0.390658
0.141552
0.0301199
0.0177605
0.00465441
0.0170155
0.042003
0.0802234
0.22764
0.470496
0.227637
0.0802232
0.0420037
0.0170166
0.0615591
0.103848
0.173334
0.343974
0.562266
0.343971
0.173333
0.103849
0.0615606
0.152708
0.208521
0.299973
0.47202
0.653445
0.472016
0.299973
0.208521
0.15271
0.281566
0.341632
0.439313
0.594306
0.735539
0.594303
0.439314
0.341633
0.281569
0.425174
0.480984
0.571718
0.699969
0.804386
0.699967
0.571718
0.480984
0.425176
0.562173
0.608889
0.685419
0.785022
0.859156
0.78502
0.68542
0.60889
0.562175
0.67986
0.71609
0.776325
0.850039
0.900985
0.850038
0.776325
0.716091
0.679862
0.773773
0.800286
0.845307
0.897834
0.931897
0.897834
0.845308
0.800287
0.773774
0.844734
0.863275
0.895608
0.931877
0.954056
0.931877
0.895609
0.863275
0.844735
0.896065
0.908592
0.931082
0.955549
0.969985
0.955549
0.931082
0.908592
0.896066
0.932146
0.940213
0.955798
0.971797
0.978513
0.971797
0.955798
0.940213
0.932147
0.955344
0.961354
0.970243
0.980174
0.997952
0.980174
0.970243
0.961354
0.955345
0.974735
0.974958
0.989561
1.0139
0.955791
1.0139
0.989561
0.974958
0.974735
0.992814
0.989258
0.981457
0.776853
0.409678
0.776854
0.981457
0.989258
0.992815
0.982627
0.998359
0.921434
0.501604
0.128669
0.501606
0.921434
0.998359
0.982627
0.96352
0.998533
0.867923
0.372251
0.0531531
0.372253
0.867925
0.998533
0.96352
0.949146
0.993298
0.837642
0.336714
0.0537233
0.336716
0.837644
0.993298
0.949146
0.941282
0.986301
0.826119
0.351656
0.0913509
0.351659
0.826121
0.986301
0.941282
0.938336
0.979756
0.826764
0.394277
0.153706
0.39428
0.826767
0.979756
0.938336
0.938727
0.974724
0.83489
0.451733
0.23296
0.451736
0.834892
0.974724
0.938727
0.9413
0.971508
0.847382
0.51592
0.321746
0.515923
0.847383
0.971508
0.9413
0.945208
0.969989
0.86218
0.581461
0.413595
0.581463
0.862181
0.969989
0.945208
0.949798
0.969836
0.877859
0.644994
0.503681
0.644995
0.87786
0.969836
0.949798
0.954561
0.970629
0.893438
0.704725
0.589148
0.704726
0.893438
0.970629
0.954562
0.959123
0.971907
0.908339
0.760208
0.669054
0.760209
0.90834
0.971907
0.959123
0.963289
0.97322
0.92258
0.812467
0.744467
0.812468
0.92258
0.97322
0.963289
0.967151
0.974051
0.936428
0.863172
0.817179
0.863173
0.936428
0.974052
0.967152
0.971706
0.97607
0.958575
0.923763
0.900956
0.923763
0.958575
0.976071
0.971706
0.978282
0.979243
0.96605
0.941297
0.924965
0.941297
0.966051
0.979243
0.978283
0.987468
0.98654
0.965965
0.921275
0.89426
0.921276
0.965966
0.986541
0.987468
0.997289
0.997574
0.982703
0.932797
0.891994
0.932797
0.982704
0.997575
0.997289
0.0010914
0.00150852
-0.00042955
0.0162165
0.200634
0.0162163
-0.000429416
0.00150866
0.00109139
0.00143043
0.00199218
0.000506045
0.0184876
0.213139
0.0184876
0.000506175
0.0019924
0.00143064
0.00322849
0.00465389
-0.00039337
0.0423923
0.264727
0.0423921
-0.000393121
0.0046544
0.00322909
0.0117866
0.0170155
0.017517
0.104437
0.346964
0.104436
0.0175171
0.0170166
0.011788
0.0471467
0.0615592
0.0817513
0.210087
0.448045
0.210085
0.081751
0.0615606
0.0471488
0.127614
0.152709
0.195963
0.34448
0.55441
0.344479
0.195963
0.15271
0.127617
0.24976
0.281567
0.33969
0.484888
0.654695
0.484886
0.33969
0.281569
0.249763
0.392497
0.425175
0.486719
0.61315
0.741732
0.613148
0.486719
0.425177
0.3925
0.532997
0.562174
0.618571
0.720071
0.812679
0.72007
0.61857
0.562175
0.532999
0.656202
0.679861
0.726864
0.803667
0.86779
0.803666
0.726863
0.679862
0.656205
0.755852
0.773773
0.810465
0.86603
0.908998
0.866029
0.810464
0.773774
0.755854
0.831788
0.844734
0.872095
0.910862
0.938738
0.910862
0.872095
0.844735
0.831789
0.886998
0.896065
0.915868
0.942647
0.960922
0.942647
0.915868
0.896066
0.886999
0.925586
0.932146
0.946865
0.961983
0.968084
0.961983
0.946865
0.932147
0.925587
0.951696
0.955345
0.962505
0.990963
1.03093
0.990963
0.962505
0.955345
0.951697
0.967895
0.974735
1.0094
0.941231
0.591565
0.941231
1.0094
0.974735
0.967895
0.981809
0.992815
0.874116
0.319008
8.10131e-05
0.319009
0.874117
0.992815
0.981809
0.994978
0.982627
0.662053
0.0513226
-0.0254078
0.0513236
0.662055
0.982628
0.994978
1.00347
0.963519
0.546797
-0.0224308
-0.0341024
-0.0224297
0.546799
0.96352
1.00347
1.007
0.949145
0.507987
-0.0270387
-0.0346938
-0.0270375
0.50799
0.949146
1.007
1.00712
0.941281
0.513079
0.00367207
-0.0228763
0.00367344
0.513083
0.941282
1.00712
1.00546
0.938336
0.542279
0.0614715
0.0104113
0.061473
0.542282
0.938337
1.00546
1.00318
0.938726
0.584154
0.140288
0.0688055
0.140289
0.584157
0.938727
1.00318
1.00096
0.9413
0.631543
0.232233
0.148367
0.232235
0.631545
0.941301
1.00096
0.9991
0.945208
0.679734
0.32941
0.241273
0.329411
0.679736
0.945209
0.9991
0.997729
0.949798
0.725706
0.425411
0.33948
0.425412
0.725708
0.949799
0.997729
0.996833
0.954562
0.767631
0.515704
0.436409
0.515704
0.767632
0.954563
0.996833
0.996321
0.959124
0.804606
0.597478
0.527317
0.597479
0.804607
0.959124
0.996321
0.996041
0.96329
0.83664
0.669533
0.609331
0.669533
0.836641
0.96329
0.996041
0.995823
0.967153
0.864702
0.732023
0.681216
0.732024
0.864702
0.967153
0.995823
0.995799
0.971707
0.891581
0.789411
0.748059
0.789411
0.891581
0.971707
0.995799
0.996543
0.978283
0.91464
0.827379
0.789031
0.827379
0.91464
0.978283
0.996544
0.998
0.987469
0.941235
0.861318
0.818417
0.861318
0.941235
0.987469
0.998
0.999797
0.997289
0.976414
0.92064
0.87699
0.92064
0.976414
0.997289
0.999798
)
;

boundaryField
{
    injectionXMinus
    {
        type            calculated;
        value           nonuniform List<scalar> 2(-0.00116301 6.69302e-05);
    }
    injectionXPlus
    {
        type            calculated;
        value           nonuniform List<scalar> 2(-0.00116333 6.66348e-05);
    }
    injectionYMinus
    {
        type            calculated;
        value           nonuniform List<scalar> 2(-0.001163 6.6933e-05);
    }
    injectionYPlus
    {
        type            calculated;
        value           nonuniform List<scalar> 2(-0.00116331 6.66343e-05);
    }
    inletXMinus
    {
        type            calculated;
        value           uniform 0;
    }
    inletXPlus
    {
        type            calculated;
        value           uniform 0;
    }
    inletYMinus
    {
        type            calculated;
        value           uniform 0;
    }
    inletYPlus
    {
        type            calculated;
        value           uniform 0;
    }
    outlet
    {
        type            calculated;
        value           nonuniform List<scalar> 
25
(
0.993717
0.983034
0.970201
0.983037
0.993717
0.983034
0.984258
0.97953
0.984261
0.983034
0.970201
0.97953
0.984525
0.979528
0.9702
0.983037
0.984261
0.979528
0.984256
0.983034
0.993717
0.983034
0.9702
0.983034
0.993717
)
;
    }
    valve
    {
        type            calculated;
        value           nonuniform List<scalar> 
70
(
0.96605
0.941296
0.924964
0.941296
0.966049
0.993492
0.997209
0.998027
0.997208
0.993491
0.966051
0.997209
0.99764
0.998074
0.99764
0.997209
0.941297
0.998028
0.998074
0.9978
0.998074
0.998028
0.924964
0.997208
0.99764
0.998074
0.99764
0.997209
0.941295
0.993491
0.997209
0.998028
0.997209
0.993492
0.966049
0.976226
0.951896
0.924401
0.951897
0.966051
0.976225
0.951897
0.96412
0.951805
0.96412
0.941298
0.951897
0.9244
0.951805
0.96662
0.951805
0.924965
0.9244
0.951896
0.96412
0.951805
0.96412
0.941296
0.951896
0.976224
0.96605
0.951896
0.941297
0.9244
0.924965
0.951897
0.941297
0.96605
0.976225
0.966051
)
;
    }
    walls