/*--------------------------------*- C++ -*----------------------------------*\
| =========                 |                                                 |
| \\      /  F ield         | OpenFOAM: The Open Source CFD Toolbox           |
|  \\    /   O peration     | Version:  5.x                                   |
|   \\  /    A nd           | Web:      www.OpenFOAM.org                      |
|    \\/     M anipulation  |                                                 |
\*---------------------------------------------------------------------------*/
FoamFile
{
    version     2.0;
    format      ascii;
    class       volScalarField;
    location    "0";
    object      thicknessFraction;
}
// * * * * * * * * * * * * * * * * * * * * * * * * * * * * * * * * * * * * * //

dimensions      [0 0 0 0 0 0 0];

internalField   uniform 0;

boundaryField
{
    allBoundary
    {
        type            fixedValue;
        value           nonuniform 0();
    }
    inlet
    {
        type            fixedValue;
        value           uniform 0;
    }
    outlet
    {
        type            fixedValue;
        value           nonuniform List<scalar> 
73
(
0
0
0
0
0
0
0
0
0
0
0
0
0
0
0
0
0
0
0
0
0
0
0
0
0
0
0
0
0
0
0
0
0
0
0
0
0
0
0
0
0
0
0
0
0
0
0
0
0
0
0
0
0
0
0
0
0
0
0.0722373
0.143721
0.0722373
0.193401
0.0856088
0.223116
0.263546
0.306251
0.306251
0.0724545
0.223116
0.0856088
0.0724545
0.263546
0.193401
)
;
    }
    walls
    {
        type            fixedValue;
        value           nonuniform List<scalar> 
7348
(
0
0
0
0
0
0
0
0
0
0
0
0
0
0
0
0
0
0
0
0
0
0
0
0
0
0
0
0
0
0
0
0
0
0
0
0
0
0
0
0
0
0
0
0
0
0
0
0
0
0
0
0
0
0
0
0
0
0
0
0
0
0
0
0
0
0
0
0
0
0
0
0
0
0
0
0
0
0
0
0
0
0
0
0
0
0
0
0
0
0
0
0
0
0
0
0
0
0
0
0
0
0
0
0
0
0
0
0
0
0
0
0
0
0
0
0
0
0
0
0
0
0
0
0
0
0
0
0
0
0
0
0
0
0
0
0
0
0
0
0
0
0
0
0
0
0
0
0
0
0
0
0
0
0
0
0
0
0
0
0
0
0
0
0
0
0
0
0
0
0
0
0
0
0
0
0
0
0
0
0
0
0
0
0
0
0
0
0
0
0
0
0
0
0
0
0
0
0
0
0
0
0
0
0
0
0
0
0
0
0
0
0
0
0
0
0
0
0
0
0
0
0
0
0
0
0
0
0
0
0
0
0
0
0
0
0
0
0
0
0
0
0
0
0
0
0
0
0
0
0
0
0
0
0
0
0
0
0
0
0
0
0
0
0
0
0
0
0
0
0
0
0
0
0
0
0
0
0
0
0
0
0
0
0
0
0
0
0
0
0
0
0
0
0
0
0
0
0
0
0
0
0
0
0
0
0
0
0
0
0
0
0
0
0
0
0
0
0
0
0
0
0
0
0
0
0
0
0
0
0
0
0
0
0
0
0
0
0
0
0
0
0
0
0
0
0
0
0
0
0
0
0
0
0
0
0
0
0
0
0
0
0
0
0
0
0
0
0
0
0
0
0
0
0
0
0
0
0
0
0
0
0
0
0
0
0
0
0
0
0
0
0
0
0
0
0
0
0
0
0
0
0
0
0
0
0
0
0
0
0
0
0
0
0
0
0
0
0
0
0
0
0
0
0
0
0
0
0
0
0
0
0
0
0
0
0
0
0
0
0
0
0
0
0
0
0
0.168724
0.350889
0.327906
0.353667
0.431129
0.474955
0.419812
0.330669
0.320744
0.369709
0.5137
0.465921
0.391234
0.370308
0.323592
0.31607
0.316846
0.327699
0.319883
0.315978
0.315803
0.316844
0.327735
0.321635
0.346746
0.393978
0.541163
0.61301
0.613014
0.541255
0.39438
0.346823
0.158752
0.0962144
0.259619
0.304229
0.30604
0.312857
0.323116
0.259014
0.0422298
0.356875
0.672065
0.622825
0.622523
0.659574
0.70068
0.695528
0.619004
0.618856
0.696092
0.861421
0.731341
0.758435
0.752775
0.625298
0.616609
0.617364
0.642019
0.620183
0.616327
0.616048
0.617351
0.642138
0.622738
0.682852
0.811876
0.910925
0.95382
0.95384
0.911542
0.816226
0.686006
0.404887
0.152962
0.369614
0.354477
0.345741
0.339889
0.341649
0.349224
0.372749
0.286052
0.171014
0.0692571
0.461333
0.829634
0.929254
0.934674
0.942515
0.952931
0.950784
0.931556
0.931428
0.953025
0.981733
0.965779
0.966629
0.963592
0.937174
0.929281
0.930195
0.936781
0.932925
0.929038
0.928722
0.930185
0.936875
0.935474
0.9507
0.977575
0.992978
0.998104
0.998101
0.99256
0.963478
0.8008
0.451187
0.343742
0.413149
0.288264
0.385036
0.236337
0.218108
0.0759409
0.320321
0.499956
0.403628
0.148515
0.218394
0.0725234
0.444042
0.724595
0.590232
0.296174
0.2469
0.224905
0.456714
0.749243
0.603703
0.329687
0.328826
0.291285
0.579425
0.835491
0.710215
0.435409
0.433971
0.346275
0.808017
0.96205
0.917566
0.583243
0.453875
0.35709
0.84518
0.984482
0.945317
0.608157
0.398672
0.323717
0.774774
0.950657
0.850061
0.524684
0.292149
0.266805
0.624961
0.881399
0.628547
0.364502
0.286951
0.255879
0.622949
0.887951
0.680454
0.352701
0.332588
0.24752
0.683168
0.896291
0.77889
0.394244
0.212481
0.0780761
0.439815
0.583798
0.526324
0.276978
0.493873
0.867914
0.988215
0.995908
0.99667
0.997363
0.9972
0.99575
0.995741
0.997349
0.999209
0.998235
0.998471
0.998259
0.996236
0.995579
0.995678
0.996309
0.995957
0.995568
0.995543
0.995678
0.996313
0.99615
0.997268
0.999098
0.99981
0.999978
0.999972
0.999263
0.982432
0.832378
0.491305
0.497856
0.521826
0.288079
0.426223
0.265695
0.259972
0.147207
0.336722
0.424477
0.473338
0.505531
0.511032
0.493586
0.456439
0.450222
0.431893
0.245366
0.0835231
0.507035
0.906837
0.994233
0.999815
0.999939
0.999953
0.99995
0.999916
0.999916
0.999952
0.99999
0.999962
0.999973
0.999969
0.99992
0.999909
0.999909
0.999927
0.999916
0.99991
0.999913
0.999914
0.999928
0.999922
0.999951
0.99999
0.999995
0.999993
0.999987
0.999358
0.98137
0.820509
0.460656
0.534884
0.542707
0.274944
0.409345
0.253269
0.250069
0.322782
0.479161
0.495553
0.49934
0.5
0.500005
0.499973
0.499642
0.507341
0.458132
0.25067
0.0710516
0.486062
0.887918
0.992495
0.999478
0.999952
0.999998
0.999999
0.999999
0.999999
0.999991
0.999831
0.999428
0.999449
0.999361
0.999303
0.999444
0.99936
0.99928
0.999306
0.999611
0.999942
0.999803
0.999423
0.999578
0.999911
0.999948
0.999609
0.999311
0.999397
0.99911
0.97961
0.812086
0.450614
0.41735
0.431397
0.254324
0.381523
0.236154
0.231815
0.292927
0.481952
0.512029
0.584163
0.734953
0.757977
0.678224
0.520971
0.479665
0.365548
0.0918938
0.461719
0.842919
0.971895
0.9881
0.99793
0.999755
0.999827
0.999827
0.999819
0.999379
0.994252
0.983654
0.983224
0.981403
0.980274
0.983024
0.981376
0.979647
0.98048
0.988419
0.997315
0.99302
0.983473
0.986944
0.995875
0.997523
0.988262
0.980669
0.98302
0.993504
0.978849
0.811196
0.448758
0.320933
0.354176
0.256507
0.378445
0.232147
0.22755
0.0444222
0.253731
0.325045
0.426924
0.563661
0.587851
0.507867
0.355983
0.262036
0.0921296
0.38285
0.702224
0.810323
0.87781
0.970888
0.989956
0.991061
0.991077
0.990911
0.985565
0.935815
0.835432
0.834095
0.820687
0.815132
0.832917
0.820517
0.812289
0.817053
0.880909
0.963228
0.919
0.833425
0.86127
0.940696
0.963379
0.877632
0.818071
0.832579
0.934944
0.965148
0.804584
0.441463
0.288788
0.403526
0.35854
0.361663
0.36042
0.334627
0.294262
0.335577
0.386447
0.214143
0.209464
0.0978439
0.374224
0.449292
0.579612
0.808676
0.854116
0.85721
0.85727
0.856743
0.843123
0.727797
0.479151
0.493412
0.461066
0.455268
0.491538
0.462382
0.465648
0.497462
0.622907
0.791764
0.653568
0.458852
0.511069
0.674328
0.777324
0.578279
0.458943
0.475191
0.726892
0.825326
0.701377
0.37377
0.14688
0.380585
0.461356
0.486885
0.486578
0.459207
0.411624
0.401271
0.287119
0.0732443
0.0688259
0.0835225
0.0710482
0.0346059
0.200891
0.433473
0.491781
0.50698
0.484809
0.439642
0.307878
0.0399002
0.181043
0.549443
0.797845
0.865396
0.9067
0.884416
0.799128
0.555524
0.295755
0.0740266
0.0692966
0.313684
0.616634
0.923468
0.987705
0.99404
0.985876
0.89898
0.617335
0.431866
0.228797
0.225698
0.434053
0.719694
0.95698
0.997372
0.999446
0.98719
0.86124
0.604979
0.560759
0.327723
0.325753
0.571969
0.909035
0.989352
0.999555
0.999559
0.986305
0.856895
0.666882
0.759585
0.434281
0.429724
0.522011
0.848881
0.977718
0.998837
0.999546
0.986278
0.857001
0.679637
0.803521
0.46171
0.45694
0.362427
0.62911
0.93959
0.996338
0.999491
0.986277
0.857011
0.680417
0.806586
0.463786
0.459013
0.321897
0.619191
0.931828
0.995767
0.99948
0.986277
0.857011
0.68043
0.806647
0.46383
0.459057
0.348184
0.67932
0.949323
0.99719
0.999514
0.986278
0.857009
0.680299
0.806122
0.463461
0.458688
0.386391
0.752239
0.962465
0.998165
0.999538
0.98628
0.856937
0.676323
0.792787
0.454761
0.450022
0.340709
0.626354
0.93804
0.996287
0.999497
0.986523
0.857255
0.641696
0.685487
0.391785
0.388035
0.318824
0.616607
0.929266
0.995575
0.999605
0.990005
0.885082
0.623283
0.47847
0.283904
0.283531
0.315909
0.615978
0.928651
0.995538
0.999733
0.99348
0.923612
0.723999
0.486447
0.270045
0.269517
0.315774
0.615963
0.928639
0.995536
0.999629
0.990602
0.88418
0.585068
0.460493
0.254212
0.253996
0.315772
0.615963
0.928639
0.995538
0.999697
0.991817
0.900645
0.614014
0.449033
0.245118
0.244701
0.315772
0.615963
0.928639
0.995535
0.999516
0.987495
0.860896
0.572293
0.478944
0.266248
0.265227
0.315774
0.615963
0.928639
0.995536
0.999589
0.98916
0.873377
0.577667
0.461865
0.257087
0.256966
0.31592
0.615963
0.928639
0.995538
0.999674
0.990931
0.89129
0.582917
0.464412
0.267086
0.271165
0.318871
0.615963
0.928639
0.995535
0.9995
0.986799
0.855227
0.560904
0.516257
0.327948
0.338749
0.336264
0.615963
0.928639
0.995535
0.999476
0.986193
0.854404
0.608985
0.605131
0.397708
0.397751
0.364879
0.615963
0.928639
0.995535
0.999477
0.986247
0.856005
0.654217
0.730413
0.427335
0.419916
0.375858
0.615963
0.928639
0.995535
0.999475
0.986078
0.852207
0.598176
0.557612
0.333651
0.326214
0.342309
0.615964
0.92864
0.995535
0.999474
0.985998
0.850603
0.564636
0.457303
0.249911
0.248738
0.320154
0.616077
0.928741
0.99554
0.999474
0.986004
0.850702
0.565129
0.456858
0.258573
0.248718
0.329438
0.618852
0.931441
0.995741
0.999479
0.986165
0.854116
0.606086
0.558712
0.334622
0.324953
0.39973
0.689656
0.950155
0.997181
0.999513
0.986234
0.855759
0.650227
0.711406
0.408507
0.400277
0.399749
0.689656
0.950155
0.997181
0.999508
0.985864
0.849641
0.583885
0.554559
0.327218
0.32449
0.330138
0.618854
0.931442
0.995741
0.999454
0.985161
0.842495
0.519223
0.444411
0.25194
0.250958
0.328764
0.616195
0.928825
0.995495
0.99941
0.985498
0.846768
0.546655
0.467841
0.276255
0.275274
0.379849
0.619034
0.930238
0.9929
0.996386
0.983224
0.853689
0.63953
0.681227
0.390792
0.386566
0.484298
0.710035
0.924651
0.944618
0.942938
0.932322
0.833409
0.691472
0.776206
0.445084
0.439611
0.495294
0.745663
0.753405
0.657242
0.652663
0.649376
0.608874
0.599972
0.645034
0.382206
0.37489
0.288402
0.439172
0.448431
0.440397
0.440244
0.439873
0.431239
0.428141
0.395688
0.195667
0.206739
0.0696194
0.172348
0.212228
0.245718
0.231811
0.257985
0.232678
0.258177
0.232696
0.251406
0.232667
0.237311
0.231881
0.220043
0.226304
0.072418
0.169727
0.0851521
0.205786
0.247554
0.248726
0.242847
0.248239
0.269445
0.305878
0.339318
0.359795
0.372909
0.362646
0.319538
0.273374
0.247753
0.238279
0.238315
0.248193
0.27678
0.330176
0.380849
0.391125
0.357192
0.311848
0.283931
0.270685
0.261285
0.248734
0.238168
0.234313
0.233395
0.233363
0.233967
0.235991
0.239835
0.239835
0.235991
0.233966
0.233342
0.233216
0.233216
0.233342
0.233966
0.235993
0.239858
0.240035
0.237229
0.239515
0.251006
0.26783
0.289217
0.337267
0.398571
0.43807
0.455667
0.460153
0.455668
0.438076
0.398579
0.337173
0.288755
0.266535
0.24028
0.185148
0.0737272
0.0735965
0.176729
0.215981
0.227898
0.230534
0.231484
0.233505
0.238186
0.244946
0.247245
0.232016
0.182843
0.0738059
0.0388765
0.0830881
0.302619
0.282
0.461713
0.34336
0.530995
0.497535
0.331345
0.456485
0.457228
0.396663
0.468947
0.51814
0.448912
0.535886
0.519017
0.47523
0.586539
0.637502
0.359455
0.555603
0.472771
0.320683
0.456795
0.451546
0.331713
0.451589
0.457619
0.445164
0.525099
0.646757
0.521375
0.727256
0.717432
0.410389
0.59787
0.540914
0.383006
0.58432
0.594517
0.344865
0.572582
0.505167
0.317435
0.454511
0.450282
0.31601
0.449375
0.449332
0.319883
0.449865
0.45189
0.327699
0.472993
0.472993
0.316843
0.45189
0.449863
0.315803
0.449309
0.449198
0.315978
0.449198
0.449309
0.319886
0.449863
0.451892
0.327984
0.473031
0.473193
0.325099
0.453023
0.455344
0.375312
0.507032
0.580103
0.454059
0.61693
0.684646
0.591514
0.775185
0.826595
0.618378
0.848089
0.853356
0.591542
0.848106
0.826706
0.454079
0.775686
0.686208
0.378662
0.621978
0.595882
0.278491
0.542363
0.444259
0.0422614
0.309614
0.153008
0.0374488
0.0416691
0.154746
0.175383
0.265436
0.331886
0.294449
0.374199
0.39299
0.305602
0.395672
0.393819
0.307968
0.392951
0.394088
0.320168
0.397944
0.404235
0.308117
0.40798
0.399403
0.154184
0.367751
0.29141
0.160471
0.0414958
0.0699881
0.0884233
0.548282
0.45248
0.588763
0.660053
0.774691
0.823974
0.619877
0.820668
0.81778
0.657324
0.82227
0.836877
0.632967
0.840692
0.839262
0.76173
0.866064
0.886515
0.626786
0.861817
0.829
0.617219
0.816491
0.81347
0.626691
0.816248
0.828887
0.804312
0.865817
0.91521
0.842303
0.942897
0.933541
0.695725
0.893833
0.878383
0.776141
0.89689
0.905011
0.680412
0.891128
0.856707
0.618516
0.826841
0.815721
0.616429
0.812436
0.812142
0.620184
0.81382
0.818567
0.642019
0.828026
0.828026
0.61735
0.818565
0.813797
0.616048
0.811969
0.811464
0.616328
0.811464
0.81197
0.620197
0.813799
0.818588
0.642608
0.828201
0.829019
0.626815
0.822969
0.829502
0.763041
0.858685
0.897466
0.861176
0.926293
0.950778
0.941147
0.971761
0.984193
0.95687
0.989236
0.9904
0.941279
0.989242
0.98423
0.863162
0.971834
0.950233
0.769101
0.920546
0.869237
0.552609
0.765653
0.598378
0.25342
0.440758
0.298397
0.0724569
0.184176
0.292318
0.264102
0.383664
0.37212
0.396378
0.350814
0.350608
0.303064
0.288152
0.341625
0.280699
0.276282
0.339967
0.274473
0.274189
0.345037
0.274937
0.276995
0.354695
0.281476
0.294803
0.366069
0.329277
0.365453
0.148319
0.354586
0.245002
0.215283
0.170357
0.612567
0.470458
0.626132
0.911438
0.853293
0.947021
0.931713
0.973955
0.979597
0.940359
0.981471
0.983379
0.943677
0.98412
0.984601
0.959304
0.987239
0.988997
0.938017
0.986524
0.982608
0.929852
0.980433
0.979848
0.937992
0.980393
0.982597
0.971483
0.987241
0.992667
0.978318
0.995579
0.994553
0.960864
0.991222
0.990056
0.969567
0.991785
0.992702
0.949843
0.990802
0.986489
0.931192
0.982405
0.980336
0.929131
0.97967
0.97963
0.932926
0.980039
0.981074
0.936781
0.982388
0.982388
0.930184
0.981074
0.980037
0.928722
0.979603
0.979491
0.929038
0.979491
0.979603
0.932936
0.980037
0.981077
0.93735
0.982414
0.98257
0.93878
0.981942
0.982987
0.965945
0.986724
0.991378
0.986331
0.9948
0.997096
0.996693
0.998663
0.999474
0.998408
0.999754
0.999808
0.996648
0.999748
0.999405
0.983514
0.998086
0.993494
0.913121
0.977775
0.930072
0.612456
0.817467
0.620204
0.319353
0.460092
0.336079
0.255593
0.321947
0.456538
0.424421
0.543046
0.345112
0.466552
0.373906
0.345421
0.282
0.350109
0.292801
0.40808
0.321215
0.251979
0.244488
0.036519
0.0938303
0.176396
0.172601
0.259437
0.257953
0.305312
0.338687
0.323336
0.372934
0.405544
0.357085
0.428666
0.43957
0.346307
0.439572
0.428693
0.292662
0.40576
0.374283
0.247062
0.344949
0.327489
0.239528
0.321362
0.318846
0.182661
0.305297
0.25541
0.143816
0.0699979
0.0710519
0.230961
0.646185
0.486316
0.699116
0.960088
0.88837
0.967932
0.994576
0.992583
0.99823
0.996492
0.999235
0.99944
0.996761
0.999476
0.999482
0.997775
0.99959
0.999669
0.996271
0.999564
0.999396
0.995614
0.999306
0.999285
0.996265
0.999305
0.999394
0.99858
0.999585
0.999797
0.998958
0.999899
0.99985
0.998029
0.999726
0.999699
0.998706
0.999787
0.999834
0.997226
0.999757
0.99957
0.995733
0.999391
0.999304
0.995573
0.99928
0.99928
0.995957
0.999298
0.999352
0.996309
0.999424
0.999424
0.995678
0.999352
0.999298
0.995543
0.999279
0.999276
0.995568
0.999276
0.999279
0.995957
0.999298
0.999352
0.996345
0.999424
0.999429
0.996375
0.999381
0.999414
0.998354
0.999575
0.999767
0.999538
0.999886
0.999947
0.999939
0.99998
0.999995
0.999984
0.999998
0.999998
0.999876
0.999993
0.999931
0.996045
0.999425
0.996396
0.938265
0.98295
0.938827
0.649146
0.832831
0.649324
0.354875
0.491387
0.355055
0.380926
0.413661
0.624227
0.538263
0.667622
0.409985
0.550427
0.428475
0.0751884
0.188959
0.361011
0.286745
0.360124
0.339237
0.426392
0.340143
0.265892
0.261006
0.260695
0.263014
0.375154
0.391561
0.432658
0.461869
0.449164
0.477168
0.487278
0.493378
0.495384
0.499442
0.51103
0.5
0.500005
0.505542
0.500005
0.500003
0.474443
0.499514
0.496109
0.443526
0.491353
0.491745
0.434073
0.489908
0.48154
0.363256
0.463577
0.409973
0.170782
0.291248
0.212462
0.265518
0.083523
0.265516
0.753582
0.50701
0.753529
0.973381
0.906784
0.973347
0.999007
0.994224
0.999016
0.999927
0.999842
0.999968
0.999938
0.999991
0.999994
0.999965
0.999996
0.999997
0.999927
0.999996
0.999994
0.999914
0.999993
0.999993
0.999927
0.999993
0.999994
0.999979
0.999995
0.999994
0.999981
0.999982
0.999953
0.999959
0.999928
0.999924
0.99998
0.999935
0.999936
0.999944
0.999922
0.999912
0.99991
0.99991
0.999917
0.999909
0.999929
0.999929
0.999916
0.999917
0.99991
0.999927
0.999909
0.999909
0.99991
0.99991
0.999921
0.999912
0.999947
0.999975
0.999914
0.999988
0.999987
0.999919
0.999972
0.999946
0.999929
0.999925
0.999925
0.999928
0.999945
0.999971
0.999976
0.999988
0.999996
0.999994
0.999995
0.999982
0.999993
0.999954
0.999928
0.999992
0.999917
0.999916
0.99992
0.999921
0.99987
0.996013
0.999282
0.995689
0.93391
0.980121
0.930478
0.621386
0.814363
0.617693
0.337288
0.453818
0.324876
0.411986
0.377219
0.660646
0.489087
0.604068
0.421906
0.49831
0.38944
0.243157
0.253173
0.345627
0.262261
0.330342
0.326224
0.391639
0.311656
0.242122
0.238456
0.435934
0.337125
0.456838
0.49155
0.501742
0.512566
0.497828
0.51597
0.522659
0.499943
0.542465
0.564093
0.500005
0.56415
0.542768
0.500003
0.523808
0.519565
0.49962
0.521972
0.521504
0.507213
0.516946
0.518914
0.494391
0.511321
0.494846
0.423902
0.476266
0.423902
0.225798
0.305378
0.225798
0.230957
0.698676
0.491782
0.643737
0.967646
0.865397
0.958474
0.998304
0.987707
0.995026
0.999819
0.997377
0.998837
0.999991
0.999632
0.999913
0.999999
0.999976
0.999985
0.999999
0.999985
0.999985
0.999999
0.999985
0.999985
0.999998
0.999985
0.999976
0.999953
0.999913
0.999633
0.999613
0.998855
0.997566
0.999391
0.996491
0.996232
0.999444
0.996481
0.996447
0.999304
0.996022
0.995724
0.99936
0.995724
0.996021
0.999444
0.996442
0.996442
0.999299
0.996017
0.995693
0.99928
0.995575
0.995582
0.999404
0.995756
0.996345
0.999831
0.997556
0.99886
0.999931
0.999534
0.999445
0.999589
0.998641
0.997394
0.999421
0.996459
0.996439
0.999778
0.997301
0.998449
0.999966
0.99929
0.999682
0.99983
0.999578
0.998842
0.999404
0.997534
0.996342
0.999311
0.995793
0.995792
0.999523
0.996335
0.997448
0.995524
0.998127
0.995176
0.929094
0.979403
0.928697
0.616399
0.811451
0.616043
0.318689
0.449439
0.31631
0.32202
0.272657
0.517346
0.354665
0.44414
0.340782
0.376521
0.301434
0.208698
0.0849113
0.321172
0.251817
0.318111
0.30342
0.377865
0.300215
0.233747
0.229104
0.421413
0.170679
0.312738
0.503332
0.395013
0.431469
0.521535
0.449824
0.470651
0.643514
0.540577
0.621635
0.576
0.621894
0.541942
0.519314
0.476426
0.46696
0.526607
0.474912
0.473436
0.509136
0.458398
0.449333
0.482426
0.441721
0.434557
0.409975
0.41779
0.363257
0.212462
0.24659
0.170782
0.615975
0.433473
0.580778
0.94039
0.797845
0.891649
0.981595
0.923468
0.938142
0.994213
0.957026
0.978054
0.999379
0.991242
0.996661
0.999819
0.998199
0.998505
0.999827
0.998547
0.998551
0.999827
0.998551
0.998547
0.999755
0.998505
0.998199
0.997934
0.996662
0.991254
0.988421
0.97815
0.957648
0.982377
0.941339
0.93699
0.983053
0.939564
0.939022
0.980275
0.934011
0.930936
0.9814
0.930936
0.933999
0.983021
0.938917
0.938907
0.980125
0.933918
0.930491
0.979694
0.929201
0.929384
0.983053
0.931776
0.939767
0.994291
0.957968
0.978466
0.996784
0.988616
0.98625
0.987481
0.972884
0.953856
0.983347
0.940585
0.940078
0.991942
0.951646
0.968329
0.997907
0.982114
0.98995
0.994149
0.989149
0.977596
0.983026
0.957129
0.939597
0.980668
0.932367
0.932367
0.988185
0.939597
0.957116
0.993471
0.977345
0.986784
0.928411
0.97614
0.926925
0.61592
0.810186
0.615523
0.314829
0.447018
0.310975
0.244469
0.229595
0.408917
0.305565
0.399677
0.287914
0.360714
0.303609
0.0711473
0.178839
0.231571
0.249774
0.238504
0.188708
0.0760989
0.321464
0.277992
0.336905
0.299009
0.382558
0.296435
0.227918
0.223574
0.140746
0.174042
0.248234
0.308888
0.363499
0.421452
0.317015
0.440472
0.430504
0.155187
0.384901
0.289484
0.155687
0.148146
0.0703371
0.0687305
0.304787
0.25175
0.332087
0.4693
0.444833
0.485892
0.476932
0.495262
0.491454
0.372648
0.470649
0.412895
0.298956
0.171619
0.168763
0.292817
0.21651
0.214217
0.34552
0.27763
0.358657
0.49108
0.464404
0.493878
0.495604
0.498956
0.497661
0.433191
0.4882
0.45095
0.357475
0.241689
0.238242
0.341033
0.271402
0.260525
0.380783
0.325854
0.407876
0.497473
0.494695
0.499737
0.499255
0.499981
0.499928
0.470419
0.499147
0.48399
0.470267
0.316649
0.286224
0.387572
0.356109
0.305583
0.429216
0.357213
0.439673
0.500004
0.511069
0.499998
0.499945
0.499933
0.499455
0.484327
0.495935
0.472448
0.418505
0.356668
0.306167
0.37058
0.319594
0.289099
0.439585
0.346278
0.428669
0.499983
0.505532
0.499978
0.498537
0.499759
0.498179
0.457956
0.489119
0.450997
0.350628
0.28127
0.269402
0.340088
0.266838
0.259628
0.405555
0.291321
0.373043
0.499481
0.473662
0.495868
0.498479
0.499432
0.498523
0.450618
0.489164
0.448826
0.350854
0.268053
0.258013
0.335975
0.265047
0.255268
0.339214
0.225399
0.306628
0.48984
0.428421
0.484574
0.498915
0.502927
0.504021
0.443613
0.489654
0.439916
0.3261
0.253494
0.248382
0.322525
0.244046
0.242177
0.260554
0.0726249
0.172214
0.468816
0.335449
0.430724
0.503083
0.474365
0.4881
0.437779
0.479472
0.433495
0.318831
0.240591
0.24013
0.318593
0.23939
0.239318
0.0921075
0.0354127
0.365063
0.140836
0.253932
0.45649
0.332226
0.383776
0.416162
0.396188
0.359549
0.255408
0.22781
0.227737
0.254657
0.182658
0.182473
0.09189
0.25032
0.0707962
0.167448
0.24141
0.19307
0.165418
0.0699979
0.0740886
0.0739601
0.0689993
0.512491
0.200891
0.402494
0.782232
0.549443
0.603945
0.831299
0.616635
0.628582
0.935653
0.72004
0.851218
0.985563
0.919983
0.947983
0.990911
0.956581
0.958552
0.991077
0.958886
0.958927
0.991061
0.958927
0.958886
0.989956
0.958552
0.956581
0.97091
0.947985
0.920003
0.878717
0.851349
0.720566
0.826082
0.63075
0.624698
0.833124
0.650124
0.649554
0.815135
0.62149
0.618132
0.820661
0.61813
0.621474
0.832899
0.649373
0.649362
0.814389
0.62139
0.617709
0.812674
0.616521
0.616764
0.833162
0.619387
0.629576
0.937775
0.728238
0.859805
0.955262
0.905249
0.885023
0.867563
0.811037
0.697885
0.832181
0.629344
0.628501
0.904518
0.686736
0.776429
0.963489
0.84575
0.895929
0.933767
0.901242
0.846112
0.832553
0.719192
0.629112
0.818073
0.61997
0.619972
0.877884
0.629136
0.720033
0.966443
0.850516
0.91563
0.919233
0.928148
0.888424
0.613309
0.780633
0.603155
0.298531
0.426373
0.264301
0.211485
0.168246
0.397802
0.245325
0.370408
0.372192
0.432656
0.43431
0.357968
0.425848
0.434467
0.362806
0.440812
0.442539
0.352032
0.439881
0.43021
0.311179
0.409913
0.382238
0.299764
0.361102
0.360205
0.380669
0.391561
0.413133
0.284701
0.365043
0.244546
0.175075
0.168077
0.263933
0.0346059
0.0951549
0.428398
0.181043
0.268342
0.472666
0.313689
0.357691
0.727482
0.434518
0.52456
0.843118
0.583734
0.610864
0.856743
0.619924
0.622161
0.85727
0.62257
0.622625
0.85721
0.622625
0.62257
0.854116
0.622161
0.619925
0.808717
0.61088
0.583844
0.581254
0.52525
0.438035
0.468327
0.3711
0.352206
0.49193
0.359091
0.356098
0.455274
0.338169
0.32784
0.461009
0.327824
0.338038
0.491808
0.355374
0.355954
0.459635
0.340923
0.336849
0.479495
0.349189
0.376668
0.519036
0.411434
0.449729
0.753805
0.506981
0.561753
0.754386
0.572523
0.532777
0.525961
0.449675
0.370301
0.457283
0.333805
0.329849
0.590238
0.35251
0.386015
0.758343
0.450976
0.528764
0.718575
0.552462
0.515451
0.47501
0.433577
0.362981
0.458961
0.33491
0.334946
0.580037
0.363316
0.435614
0.804713
0.524234
0.580811
0.79386
0.597921
0.576734
0.549195
0.511777
0.402382
0.180254
0.263863
0.0950996
0.0685627
0.285592
0.0402998
0.148156
0.432361
0.252375
0.308453
0.479056
0.337636
0.351149
0.488783
0.355897
0.356909
0.477995
0.355996
0.351969
0.432829
0.34231
0.328033
0.403867
0.316309
0.309983
0.372927
0.297698
0.254636
0.148225
0.151995
0.0412285
0.0710516
0.230956
0.0835209
0.265511
0.265491
0.230917
0.0978439
0.0951549
0.263933
0.38285
0.402494
0.512491
0.461719
0.580778
0.615975
0.486059
0.643736
0.69867
0.506815
0.753465
0.753078
0.484354
0.696206
0.633659
0.385673
0.585816
0.515468
0.140864
0.412249
0.295664
0.160656
0.041618
0.0740266
0.179198
0.374224
0.268342
0.428398
0.702224
0.603945
0.782232
0.842919
0.891649
0.940389
0.887911
0.958474
0.967636
0.90616
0.973238
0.972526
0.850904
0.963096
0.939953
0.702261
0.885197
0.772517
0.417102
0.599312
0.465821
0.149181
0.37954
0.249729
0.179198
0.172014
0.228793
0.270007
0.44929
0.357635
0.472634
0.810322
0.62857
0.831284
0.971895
0.938138
0.981594
0.992476
0.995023
0.998269
0.992945
0.998705
0.996995
0.96217
0.988379
0.957899
0.773985
0.875321
0.703089
0.508136
0.586627
0.54079
0.306822
0.470249
0.355581
0.270055
0.268983
0.32735
0.388834
0.579113
0.521854
0.724324
0.877646
0.84887
0.934531
0.988092
0.977702
0.994141
0.999432
0.998823
0.999769
0.997298
0.999542
0.997211
0.95222
0.986476
0.94984
0.684227
0.856732
0.681493
0.613879
0.639179
0.718073
0.429009
0.684495
0.513457
0.390959
0.387164
0.425186
0.42521
0.794517
0.571986
0.794523
0.965373
0.909035
0.965374
0.997482
0.989353
0.997483
0.999895
0.999556
0.999895
0.997181
0.999559
0.997177
0.949415
0.98628
0.949356
0.687263
0.856928
0.687334
0.779662
0.676218
0.805621
0.570616
0.792734
0.597279
0.454738
0.449997
0.389029
0.328502
0.724389
0.435064
0.579552
0.934545
0.719767
0.877803
0.994155
0.957156
0.988263
0.99978
0.99753
0.999559
0.997176
0.999518
0.997173
0.949357
0.986278
0.949357
0.687885
0.857009
0.687892
0.813836
0.680297
0.815742
0.606262
0.806122
0.60849
0.463461
0.458688
0.275297
0.248131
0.474781
0.331258
0.457195
0.832545
0.619841
0.817872
0.983024
0.932279
0.980648
0.999354
0.995786
0.999261
0.997171
0.99948
0.99717
0.949357
0.986277
0.949357
0.687904
0.857011
0.687904
0.816071
0.68043
0.816111
0.608899
0.806647
0.608953
0.46383
0.459057
0.238989
0.240903
0.452405
0.325842
0.455394
0.816869
0.625305
0.826859
0.980533
0.937189
0.982409
0.999259
0.996232
0.999342
0.99717
0.99949
0.997171
0.949357
0.986277
0.949357
0.687904
0.857011
0.687904
0.816111
0.680417
0.816071
0.608953
0.806586
0.608899
0.463786
0.459013
0.253277
0.269121
0.505794
0.37561
0.570911
0.855647
0.746583
0.886291
0.986329
0.961297
0.990066
0.999517
0.998092
0.999682
0.997173
0.999537
0.997175
0.949357
0.986278
0.949357
0.687892
0.857002
0.687886
0.815744
0.67965
0.813855
0.608491
0.803528
0.606265
0.461712
0.456943
0.278687
0.272488
0.580503
0.368964
0.520562
0.889243
0.685852
0.860003
0.990406
0.951196
0.986887
0.999694
0.997308
0.999535
0.997175
0.999516
0.997179
0.949359
0.98631
0.949441
0.687353
0.856971
0.68733
0.805755
0.667382
0.780347
0.597304
0.759859
0.570776
0.434432
0.429888
0.255334
0.242592
0.463044
0.325584
0.45429
0.828545
0.618831
0.816241
0.982671
0.931463
0.980415
0.99935
0.995744
0.99926
0.99722
0.999517
0.997427
0.95003
0.987501
0.953187
0.682284
0.863614
0.686283
0.720759
0.612719
0.621628
0.514295
0.563014
0.43281
0.331537
0.329704
0.236256
0.233969
0.450698
0.31651
0.449528
0.812425
0.616077
0.811509
0.979663
0.928741
0.979494
0.999245
0.995542
0.999257
0.99798
0.999726
0.998681
0.961714
0.993197
0.973427
0.722488
0.921219
0.823661
0.565909
0.717015
0.585488
0.370233
0.468028
0.351825
0.267762
0.267598
0.233347
0.233219
0.449238
0.315791
0.449185
0.811342
0.615964
0.81132
0.979469
0.92864
0.979466
0.999257
0.995536
0.999244
0.998734
0.999641
0.998227
0.974431
0.991176
0.965484
0.827618
0.892797
0.729722
0.603903
0.623639
0.577696
0.35744
0.48495
0.354425
0.26702
0.266483
0.233198
0.233196
0.449177
0.315772
0.449177
0.811318
0.615963
0.811317
0.979466
0.928639
0.979466
0.999243
0.995538
0.999254
0.998131
0.999703
0.998496
0.962915
0.992068
0.968149
0.708159
0.9024
0.772998
0.540213
0.615365
0.515015
0.33766
0.449176
0.326523
0.245138
0.244738
0.233196
0.233196
0.449177
0.315772
0.449177
0.811317
0.615963
0.811317
0.979466
0.928639
0.979466
0.999254
0.995536
0.999239
0.998448
0.999592
0.997868
0.967288
0.989313
0.95859
0.771534
0.875077
0.701961
0.513914
0.579297
0.534693
0.326472
0.460112
0.337254
0.254064
0.253725
0.233196
0.233196
0.449177
0.315772
0.449177
0.811317
0.615963
0.811317
0.979466
0.928639
0.979466
0.999229
0.995535
0.999229
0.997439
0.999516
0.997436
0.952739
0.987469
0.952623
0.678298
0.860604
0.678099
0.551148
0.572234
0.551089
0.352254
0.47923
0.352864
0.266869
0.265871
0.233199
0.233221
0.449177
0.315793
0.449185
0.811317
0.615963
0.811317
0.979466
0.928639
0.979466
0.999239
0.995538
0.999253
0.997844
0.999686
0.998359
0.957952
0.991312
0.965316
0.699503
0.895423
0.762932
0.534537
0.608783
0.514754
0.340419
0.455627
0.3372
0.254432
0.255255
0.233364
0.234054
0.449241
0.316556
0.449531
0.811317
0.615963
0.811317
0.979466
0.928639
0.979466
0.999252
0.995536
0.999237
0.998281
0.99957
0.997708
0.963895
0.988477
0.955468
0.752736
0.866933
0.687808
0.496131
0.547773
0.520656
0.353865
0.497774
0.391175
0.294352
0.304347
0.236517
0.242936
0.450615
0.324964
0.453498
0.811317
0.615963
0.811317
0.979466
0.928639
0.979466
0.999228
0.995535
0.999226
0.997309
0.999479
0.997175
0.950244
0.986223
0.948596
0.672032
0.852382
0.670375
0.54174
0.571885
0.543951
0.426859
0.522727
0.456147
0.361391
0.366845
0.254817
0.270191
0.458858
0.350879
0.465786
0.811317
0.615963
0.811317
0.979466
0.928639
0.979466
0.999226
0.995535
0.999226
0.997161
0.999477
0.997164
0.948785
0.986223
0.94898
0.680408
0.855131
0.680968
0.623042
0.640426
0.723521
0.503794
0.707597
0.54938
0.426328
0.422068
0.284774
0.295164
0.472495
0.375263
0.477684
0.811317
0.615963
0.811317
0.979466
0.928639
0.979466
0.999226
0.995535
0.999226
0.997167
0.999476
0.997161
0.949144
0.986206
0.948948
0.684685
0.855422
0.684262
0.751708
0.640632
0.711224
0.553739
0.676207
0.508785
0.394251
0.384622
0.295223
0.280986
0.478249
0.362287
0.471796
0.811317
0.615963
0.811318
0.979466
0.928639
0.979466
0.999226
0.995535
0.999226
0.997143
0.999474
0.997136
0.948228
0.986023
0.947945
0.672172
0.851304
0.671504
0.610661
0.574077
0.544422
0.428576
0.473975
0.36145
0.277593
0.274955
0.260496
0.244935
0.462063
0.327077
0.454612
0.81132
0.615978
0.811342
0.979466
0.928651
0.979468
0.999226
0.995535
0.999226
0.997134
0.999474
0.997133
0.947789
0.985994
0.947762
0.668967
0.850502
0.66889
0.536949
0.563129
0.534993
0.33167
0.452674
0.323858
0.245137
0.241476
0.237833
0.238021
0.45124
0.32045
0.451442
0.81151
0.61661
0.812427
0.979494
0.929263
0.979662
0.999226
0.995573
0.99923