/*--------------------------------*- C++ -*----------------------------------*\
  =========                 |
  \\      /  F ield         | OpenFOAM: The Open Source CFD Toolbox
   \\    /   O peration     | Website:  https://openfoam.org
    \\  /    A nd           | Version:  6
     \\/     M anipulation  |
\*---------------------------------------------------------------------------*/
FoamFile
{
    version     2.0;
    format      ascii;
    class       volScalarField;
    location    "0.3";
    object      T;
}
// * * * * * * * * * * * * * * * * * * * * * * * * * * * * * * * * * * * * * //

dimensions      [0 0 0 1 0 0 0];

internalField   nonuniform List<scalar> 
3029
(
277.841
271.489
304.023
245.121
316.079
245.122
304.023
271.489
277.841
314.602
319.554
341.957
270.398
341.329
270.398
341.957
319.554
314.602
255.949
262.135
295.212
264.436
329.122
264.436
295.211
262.135
255.949
258.426
254.109
289.881
264.6
320.123
264.6
289.88
254.109
258.426
267.585
256.941
289.328
267.216
318.552
267.216
289.327
256.94
267.585
274.011
260.969
289.652
271.222
322.812
271.222
289.65
260.967
274.01
278.218
264.957
291.187
277.198
331.613
277.197
291.185
264.955
278.216
282.19
269.831
294.824
286.045
344.317
286.044
294.822
269.828
282.188
287.732
276.873
301.508
298.531
360.607
298.529
301.505
276.87
287.73
296.234
287.203
312.036
315.129
380.214
315.127
312.032
287.2
296.232
308.638
301.59
326.921
335.997
402.972
335.995
326.917
301.585
308.635
325.405
320.369
346.293
360.946
428.177
360.942
346.288
320.364
325.402
346.519
343.452
369.952
389.962
457.997
389.958
369.947
343.447
346.515
371.537
370.24
397.051
421.914
485.315
421.91
397.045
370.233
371.532
399.887
400.171
427.217
459.668
563.291
459.663
427.21
400.164
399.881
431.139
431.606
453.738
480.19
560.21
480.185
453.731
431.599
431.133
467.111
470.956
494.508
442.405
530.899
442.401
494.5
470.947
467.104
505.533
514.647
528.705
393.172
507.602
393.168
528.696
514.638
505.525
540.9
550.797
545.702
374.341
462.815
374.338
545.694
550.787
540.891
573.068
581.995
563.456
381.213
473.573
381.21
563.448
581.984
573.058
602.965
610.544
583.191
395.872
483.078
395.869
583.184
610.534
602.955
631.051
637.209
603.336
412.321
489.582
412.318
603.329
637.198
631.04
657.343
662.04
622.756
429.163
495.513
429.16
622.749
662.028
657.332
681.654
684.856
640.844
446.316
502.399
446.313
640.837
684.844
681.643
703.724
705.422
657.25
463.952
510.966
463.949
657.244
705.411
703.713
723.273
723.442
671.551
482.113
521.535
482.111
671.545
723.431
723.262
740.087
738.614
683.503
500.96
534.607
500.958
683.497
738.603
740.076
754.204
750.333
691.187
518.831
548.748
518.828
691.181
750.324
754.194
766.932
759.459
699.46
540.569
570.142
540.566
699.455
759.45
766.921
781.686
766.026
692.345
545.723
574.996
545.72
692.341
766.018
781.676
810.856
793.001
747.233
626.58
668.218
626.578
747.229
792.994
810.846
852.171
840.767
857.365
748.846
789.482
748.843
857.361
840.761
852.161
886.954
871.43
786.378
690.713
706.817
690.711
786.375
871.424
886.944
956.689
967.282
596.36
335.15
292.89
335.149
596.358
967.279
956.685
271.489
253.623
314.137
256.408
269.184
256.408
314.136
253.623
271.489
319.554
349.079
415.12
300.832
285.735
300.832
415.119
349.079
319.554
262.135
288.236
359.418
303.329
291.357
303.329
359.417
288.235
262.135
254.109
261.622
325.497
299.666
295.685
299.666
325.496
261.62
254.109
256.941
255.223
310.956
298.495
302.588
298.494
310.954
255.222
256.94
260.968
256.143
306.237
300.998
312.93
300.997
306.235
256.141
260.967
264.957
259.95
306.879
307.3
326.788
307.299
306.877
259.948
264.955
269.83
266.012
311.531
317.553
344.049
317.551
311.528
266.009
269.828
276.873
274.9
320.088
331.899
364.511
331.897
320.084
274.896
276.87
287.203
287.356
332.761
350.331
387.871
350.329
332.756
287.352
287.199
301.589
303.911
349.672
372.637
413.783
372.634
349.667
303.906
301.585
320.368
324.723
370.685
398.361
441.646
398.357
370.679
324.718
320.363
343.451
349.577
395.332
426.992
471.853
426.988
395.326
349.57
343.446
370.239
377.771
422.688
457.22
500.716
457.216
422.68
377.764
370.232
400.171
408.292
451.252
488.23
543.641
488.225
451.243
408.284
400.163
431.606
439.695
478.025
506.993
525.639
506.988
478.016
439.686
431.597
470.955
474.034
503.556
508.764
680.679
508.759
503.546
474.024
470.946
514.647
508.735
524.927
508.542
842.837
508.536
524.918
508.724
514.636
550.797
539.105
543.526
514.874
837.657
514.868
543.517
539.094
550.785
581.994
566.991
563.789
531.026
834.49
531.019
563.78
566.98
581.982
610.544
593.605
585.376
551.04
835.753
551.033
585.367
593.593
610.532
637.208
619.063
607.04
571.596
838.139
571.589
607.031
619.051
637.196
662.039
643.117
627.943
591.553
840.367
591.545
627.934
643.106
662.026
684.855
665.48
647.635
610.692
841.972
610.685
647.627
665.468
684.842
705.421
685.905
665.914
629.19
843.053
629.183
665.905
685.893
705.409
723.441
704.036
682.501
647.402
843.851
647.395
682.493
704.024
723.429
738.613
719.701
697.688
665.687
844.662
665.681
697.681
719.69
738.602
750.333
730.498
707.962
683.872
844.109
683.867
707.955
730.488
750.323
759.459
739.165
724.443
698.974
839.751
698.969
724.436
739.156
759.449
766.026
716.403
659.693
675.567
776.673
675.564
659.688
716.395
766.017
793.002
723.598
870.107
747.124
846.152
747.122
870.103
723.592
792.994
840.768
754.863
951.645
794.829
888.659
794.827
951.642
754.859
840.761
871.431
830.51
1011.71
952.014
1008.45
952.013
1011.7
830.505
871.424
967.283
1100.87
1165.99
1051.77
979.554
1051.77
1165.98
1100.86
967.28
304.023
314.137
345.678
303.021
283.923
303.02
345.677
314.136
304.023
341.957
415.119
447.763
348.551
296.529
348.551
447.762
415.119
341.957
295.211
359.417
429.362
360.619
306.739
360.619
429.36
359.416
295.211
289.88
325.497
400.631
361.12
317.257
361.12
400.628
325.496
289.879
289.328
310.956
382.809
362.16
330.503
362.159
382.806
310.954
289.326
289.651
306.236
374.967
367.222
347.19
367.221
374.963
306.234
289.649
291.187
306.879
374.274
376.833
367.192
376.831
374.27
306.876
291.184
294.824
311.531
379.081
390.733
390.071
390.731
379.076
311.527
294.821
301.507
320.087
388.603
408.458
415.291
408.456
388.597
320.082
301.503
312.035
332.761
402.399
429.461
442.292
429.458
402.392
332.755
312.031
326.921
349.671
420.061
453.131
470.527
453.127
420.053
349.665
326.915
346.292
370.685
441.07
478.788
499.397
478.783
441.062
370.678
346.286
369.951
395.331
464.713
505.676
528.511
505.672
464.705
395.323
369.944
397.049
422.687
489.919
532.696
556.426
532.691
489.909
422.678
397.042
427.216
451.25
515.192
558.627
585.591
558.622
515.182
451.241
427.207
453.737
478.023
538.325
579.817
601.006
579.812
538.315
478.013
453.727
494.507
503.554
561.126
600.036
657.562
600.03
561.115
503.543
494.496
528.703
524.926
582.652
620.278
755.742
620.272
582.641
524.914
528.691
545.7
543.525
601.168
637.211
801.756
637.203
601.156
543.513
545.689
563.454
563.788
619.463
654.841
827.091
654.834
619.452
563.776
563.443
583.19
585.375
638.134
673.21
844.821
673.203
638.123
585.363
583.178
603.335
607.04
656.665
691.423
858.932
691.416
656.653
607.028
603.323
622.756
627.943
674.526
708.886
870.592
708.879
674.515
627.93
622.743
640.844
647.635
691.458
725.43
880.23
725.422
691.448
647.623
640.832
657.251
665.913
707.365
741.164
888.088
741.157
707.355
665.902
657.239
671.552
682.501
722.677
756.941
894.869
756.934
722.668
682.491
671.542
683.504
697.689
737.008
772.792
900.515
772.785
736.999
697.679
683.494
691.189
707.963
757.952
798.712
912.964
798.706
757.944
707.953
691.18
699.463
724.444
775.596
816.448
917.429
816.443
775.588
724.435
699.455
692.348
659.695
950.846
1036.71
1091.61
1036.7
950.839
659.688
692.341
747.238
870.109
1780.15
1089.18
1215.57
1089.18
1780.15
870.104
747.231
857.369
951.646
951.644
857.363
786.382
1011.71
656.472
618.115
703.475
618.115
656.47
1011.7
786.377
596.364
1165.99
933.893
894.661
883.065
894.659
933.891
1165.99
596.362
839.728
825.555
815.669
825.553
839.727
843.842
817.95
809.597
817.949
843.841
854.503
820.612
811.591
820.611
854.502
860.741
823.864
814.259
823.863
860.74
864.034
826.713
816.993
826.712
864.033
865.931
829.2
819.684
829.199
865.93
867.233
831.469
822.316
831.469
867.232
868.266
833.602
824.883
833.602
868.265
869.155
835.624
827.369
835.624
869.155
869.926
837.572
829.819
837.572
869.926
870.578
839.224
831.904
839.224
870.578
871.518
841.912
835.366
841.913
871.519
245.121
256.408
303.021
332.732
367.37
332.729
303.019
256.407
245.121
270.397
300.831
348.55
355.944
375.942
355.941
348.549
300.831
270.397
264.436
303.328
360.618
370.731
386.195
370.728
360.616
303.327
264.435
264.6
299.665
361.119
381.483
399.147
381.48
361.116
299.664
264.599
267.216
298.494
362.158
393.344
415.611
393.341
362.155
298.492
267.215
271.221
300.997
367.22
408.294
435.317
408.291
367.216
300.994
271.22
277.197
307.298
376.83
426.552
457.53
426.548
376.826
307.295
277.195
286.044
317.551
390.73
447.653
481.452
447.648
390.725
317.547
286.041
298.529
331.897
408.455
470.939
506.382
470.934
408.449
331.892
298.526
315.128
350.329
429.458
495.745
531.749
495.74
429.451
350.324
315.124
335.995
372.634
453.128
521.446
557.089
521.44
453.12
372.628
335.99
360.943
398.358
478.784
547.455
581.996
547.449
478.776
398.351
360.938
389.96
426.989
505.673
573.193
606.109
573.186
505.664
426.981
389.953
421.911
457.217
532.693
597.987
628.999
597.98
532.684
457.209
421.904
459.666
488.227
558.624
621.261
650.725
621.254
558.614
488.218
459.657
480.188
506.99
579.815
642.449
671.338
642.442
579.804
506.98
480.179
442.403
508.761
600.033
665.589
698.846
665.581
600.021
508.751
442.395
393.17
508.539
620.275
689.022
731.416
689.015
620.263
508.529
393.164
374.339
514.871
637.207
707.567
755.57
707.559
637.196
514.861
374.334
381.211
531.023
654.838
723.471
773.834
723.463
654.827
531.013
381.206
395.87
551.037
673.208
738.272
789.065
738.265
673.196
551.027
395.865
412.32
571.594
691.421
752.324
802.556
752.317
691.409
571.583
412.314
429.162
591.55
708.884
765.642
814.781
765.635
708.873
591.54
429.156
446.315
610.689
725.428
778.296
826.007
778.289
725.417
610.679
446.309
463.952
629.188
741.162
790.545
836.547
790.539
741.152
629.178
463.947
482.114
647.4
756.939
803.228
847.165
803.222
756.929
647.39
482.109
500.961
665.686
772.79
817.495
858.998
817.49
772.781
665.676
500.956
518.832
683.872
798.711
839.611
876.773
839.606
798.703
683.863
518.827
540.571
698.974
816.447
867.04
898.819
867.036
816.44
698.966
540.566
545.725
675.568
1036.71
981.566
973.092
981.562
1036.7
675.563
545.721
626.583
747.126
1089.18
596.466
649.163
596.466
1089.17
747.122
626.579
748.85
794.83
794.827
748.847
690.718
952.018
618.117
475.021
532.754
475.022
618.118
952.015
690.715
335.153
1051.78
894.665
796.834
776.21
796.837
894.664
1051.77
335.151
825.558
774.413
762.011
774.416
825.555
817.954
753.814
741.436
753.814
817.95
820.616
747.106
732.251
747.106
820.612
823.868
746.287
729.325
746.287
823.864
826.716
747.6
729.124
747.601
826.713
829.204
749.565
729.95
749.566
829.2
831.473
751.686
731.132
751.687
831.47
833.606
753.81
732.43
753.811
833.603
835.628
755.875
733.748
755.877
835.625
837.575
757.93
735.119
757.931
837.573
839.227
759.636
736.243
759.638
839.225
841.916
762.65
738.427
762.652
841.914
316.078
269.182
283.921
367.367
474.685
367.363
283.919
269.181
316.077
341.328
285.734
296.527
375.939
479.015
375.935
296.525
285.733
341.326
329.121
291.355
306.736
386.192
484.851
386.187
306.734
291.354
329.119
320.122
295.683
317.255
399.145
493.521
399.14
317.252
295.682
320.12
318.55
302.586
330.5
415.608
505.618
415.603
330.497
302.584
318.548
322.81
312.928
347.187
435.314
520.682
435.308
347.183
312.925
322.808
331.61
326.785
367.189
457.526
537.889
457.521
367.184
326.782
331.607
344.314
344.046
390.067
481.448
556.451
481.442
390.062
344.042
344.31
360.604
364.508
415.287
506.378
575.751
506.371
415.281
364.504
360.6
380.21
387.867
442.288
531.745
595.338
531.738
442.281
387.862
380.206
402.969
413.778
470.521
557.085
614.875
557.078
470.514
413.773
402.963
428.173
441.641
499.391
581.993
634.087
581.985
499.384
441.635
428.167
457.992
471.848
528.505
606.105
652.735
606.097
528.497
471.841
457.986
485.31
500.711
556.421
628.996
670.634
628.987
556.412
500.703
485.303
563.286
543.636
585.585
650.721
688.061
650.713
585.576
543.628
563.277
560.204
525.634
601.001
671.335
706.245
671.327
600.991
525.626
560.195
530.897
680.673
657.557
698.843
730.755
698.834
657.546
680.664
530.893
507.602
842.831
755.737
731.413
757.082
731.404
755.725
842.822
507.601
462.815
837.652
801.751
755.568
776.52
755.558
801.738
837.644
462.815
473.573
834.486
827.086
773.832
790.817
773.823
827.073
834.478
473.573
483.078
835.75
844.816
789.063
802.604
789.054
844.804
835.742
483.077
489.582
838.137
858.928
802.553
813.19
802.545
858.917
838.128
489.581
495.513
840.365
870.589
814.779
823.051
814.771
870.578
840.357
495.512
502.4
841.971
880.228
826.005
832.404
825.998
880.217
841.963
502.398
510.968
843.053
888.086
836.547
841.581
836.539
888.076
843.046
510.965
521.537
843.853
894.869
847.165
851.36
847.158
894.859
843.846
521.535
534.61
844.665
900.515
858.998
863.065
858.992
900.506
844.658
534.608
548.752
844.113
912.965
876.774
880.42
876.768
912.956
844.107
548.75
570.147
839.756
917.432
898.82
902.692
898.816
917.424
839.75
570.145
575.001
776.678
1091.62
973.094
946.574
973.09
1091.61
776.673
575
668.224
846.157
1215.57
649.164
723.016
649.163
1215.57
846.153
668.223
789.489
888.663
888.66
789.488
706.825
1008.46
703.48
532.755
492.217
532.755
703.479
1008.46
706.825
292.894
979.565
883.074
776.214
654.82
776.214
883.071
979.563
292.894
815.678
762.017
665.174
762.016
815.675
809.606
741.442
653.1
741.442
809.603
811.6
732.256
645.576
732.257
811.597
814.268
729.33
642.916
729.331
814.265
817.002
729.129
642.872
729.13
817
819.693
729.956
643.964
729.957
819.69
822.325
731.137
645.511
731.139
822.323
824.892
732.436
647.255
732.437
824.89
827.378
733.753
649.062
733.755
827.376
829.828
735.124
651.05
735.126
829.826
831.912
736.248
652.639
736.25
831.911
835.375
738.432
656.051
738.434
835.373
245.121
256.407
303.019
332.728
367.362
332.727
303.019
256.407
245.121
270.398
300.831
348.55
355.94
375.934
355.939
348.549
300.831
270.397
264.436
303.328
360.617
370.726
386.186
370.725
360.616
303.327
264.435
264.599
299.665
361.118
381.478
399.138
381.476
361.116
299.664
264.599
267.215
298.493
362.157
393.338
415.601
393.337
362.155
298.492
267.214
271.22
300.995
367.218
408.288
435.306
408.287
367.216
300.994
271.219
277.196
307.296
376.828
426.545
457.519
426.544
376.826
307.294
277.194
286.042
317.548
390.726
447.645
481.439
447.643
390.724
317.546
286.04
298.527
331.894
408.451
470.93
506.369
470.929
408.449
331.891
298.525
315.125
350.325
429.453
495.735
531.736
495.734
429.45
350.323
315.122
335.991
372.63
453.122
521.435
557.076
521.433
453.119
372.627
335.989
360.939
398.353
478.778
547.444
581.983
547.442
478.774
398.349
360.935
389.954
426.982
505.666
573.182
606.095
573.178
505.663
426.979
389.95
421.905
457.21
532.685
597.976
628.985
597.972
532.682
457.207
421.901
459.659
488.22
558.616
621.25
650.711
621.246
558.612
488.216
459.654
480.181
506.983
579.806
642.438
671.325
642.434
579.802
506.979
480.175
442.397
508.754
600.024
665.578
698.832
665.573
600.019
508.75
442.393
393.165
508.532
620.266
689.011
731.402
689.006
620.262
508.528
393.162
374.336
514.865
637.199
707.556
755.557
707.551
637.194
514.86
374.333
381.208
531.017
654.83
723.46
773.822
723.456
654.824
531.012
381.205
395.867
551.031
673.2
738.263
789.053
738.258
673.194
551.027
395.864
412.317
571.588
691.413
752.316
802.544
752.31
691.407
571.583
412.314
429.159
591.545
708.877
765.634
814.77
765.628
708.872
591.54
429.156
446.312
610.686
725.423
778.289
825.997
778.283
725.416
610.681
446.309
463.95
629.185
741.158
790.54
836.539
790.535
741.152
629.181
463.946
482.112
647.398
756.937
803.223
847.158
803.218
756.931
647.394
482.108
500.959
665.686
772.789
817.492
858.993
817.487
772.783
665.681
500.956
518.831
683.873
798.711
839.61
876.769
839.605
798.706
683.868
518.828
540.57
698.976
816.45
867.04
898.817
867.036
816.444
698.972
540.567
545.725
675.572
1036.71
981.567
973.091
981.563
1036.71
675.569
545.723
626.584
747.13
1089.18
596.467
649.165
596.466
1089.18
747.128
626.583
748.851
794.835
794.833
748.85
690.719
952.023
618.123
475.028
532.761
475.028
618.122
952.02
690.718
335.153
1051.78
894.672
796.847
776.221
796.846
894.669
1051.77
335.152
825.563
774.425
762.021
774.424
825.56
817.958
753.824
741.446
753.823
817.955
820.62
747.116
732.261
747.115
820.617
823.873
746.297
729.335
746.296
823.869
826.722
747.61
729.134
747.61
826.718
829.209
749.575
729.961
749.575
829.206
831.478
751.696
731.143
751.695
831.475
833.611
753.82
732.441
753.82
833.608
835.633
755.886
733.759
755.885
835.63
837.581
757.94
735.13
757.94
837.578
839.233
759.647
736.254
759.647
839.23
841.922
762.661
738.438
762.66
841.919
304.023
314.136
345.676
303.018
283.919
303.018
345.676
314.136
304.023
341.957
415.118
447.761
348.548
296.523
348.548
447.761
415.118
341.957
295.211
359.416
429.359
360.615
306.733
360.616
429.359
359.416
295.211
289.879
325.495
400.627
361.116
317.25
361.116
400.626
325.495
289.879
289.326
310.952
382.805
362.154
330.495
362.154
382.804
310.952
289.326
289.649
306.232
374.961
367.215
347.182
367.215
374.96
306.232
289.648
291.184
306.875
374.267
376.824
367.183
376.825
374.266
306.874
291.183
294.82
311.525
379.073
390.723
390.06
390.723
379.071
311.524
294.819
301.502
320.081
388.594
408.447
415.279
408.448
388.593
320.079
301.501
312.029
332.753
402.389
429.449
442.28
429.449
402.387
332.752
312.028
326.914
349.663
420.05
453.118
470.513
453.118
420.049
349.661
326.913
346.285
370.675
441.058
478.773
499.382
478.774
441.057
370.673
346.283
369.943
395.321
464.7
505.662
528.495
505.662
464.699
395.319
369.941
397.041
422.676
489.905
532.68
556.41
532.681
489.904
422.674
397.038
427.206
451.239
515.177
558.611
585.575
558.611
515.177
451.236
427.204
453.727
478.011
538.31
579.801
600.99
579.801
538.31
478.008
453.724
494.496
503.542
561.111
600.019
657.544
600.019
561.11
503.539
494.492
528.692
524.914
582.637
620.261
755.723
620.261
582.636
524.91
528.688
545.69
543.513
601.153
637.194
801.737
637.193
601.152
543.51
545.685
563.444
563.776
619.449
654.825
827.072
654.824
619.447
563.773
563.439
583.181
585.364
638.121
673.195
844.804
673.194
638.119
585.36
583.175
603.326
607.029
656.652
691.409
858.916
691.407
656.65
607.025
603.32
622.746
627.932
674.514
708.873
870.577
708.871
674.513
627.928
622.741
640.835
647.626
691.448
725.418
880.217
725.416
691.446
647.621
640.83
657.242
665.905
707.355
741.154
888.077
741.152
707.353
665.901
657.237
671.545
682.494
722.669
756.933
894.86
756.931
722.668
682.49
671.54
683.497
697.683
737.002
772.785
900.507
772.783
737
697.679
683.492
691.183
707.958
757.948
798.708
912.958
798.705
757.946
707.954
691.178
699.458
724.441
775.594
816.446
917.426
816.444
775.592
724.438
699.454
692.344
659.694
950.849
1036.71
1091.61
1036.71
950.846
659.691
692.34
747.235
870.111
1780.16
1089.18
1215.58
1089.18
1780.16
870.11
747.232
857.369
951.651
951.651
857.366
786.383
1011.71
656.477
618.123
703.482
618.123
656.478
1011.71
786.381
596.366
1166
933.903
894.672
883.076
894.672
933.902
1166
596.365
839.737
825.563
815.679
825.562
839.735
843.851
817.958
809.607
817.957
843.848
854.513
820.62
811.601
820.619
854.509
860.751
823.872
814.269
823.872
860.747
864.044
826.721
817.004
826.721
864.041
865.942
829.208
819.695
829.208
865.938
867.244
831.478
822.327
831.477
867.24
868.276
833.611
824.894
833.611
868.273
869.166
835.633
827.38
835.633
869.163
869.937
837.581
829.831
837.581
869.934
870.589
839.233
831.915
839.232
870.586
871.53
841.922
835.378
841.921
871.526
271.488
253.623
314.136
256.407
269.181
256.407
314.136
253.623
271.488
319.554
349.079
415.118
300.83
285.732
300.831
415.118
349.078
319.554
262.134
288.235
359.416
303.327
291.353
303.327
359.415
288.235
262.134
254.108
261.62
325.495
299.663
295.681
299.663
325.494
261.62
254.108
256.94
255.221
310.953
298.491
302.583
298.491
310.952
255.221
256.94
260.966
256.14
306.233
300.994
312.925
300.993
306.232
256.139
260.966
264.954
259.946
306.875
307.294
326.781
307.294
306.873
259.945
264.953
269.827
266.008
311.525
317.546
344.041
317.546
311.524
266.007
269.826
276.869
274.894
320.081
331.891
364.503
331.891
320.079
274.893
276.868
287.198
287.35
332.753
350.322
387.861
350.322
332.751
287.349
287.197
301.584
303.904
349.663
372.626
413.772
372.626
349.661
303.903
301.583
320.362
324.716
370.675
398.349
441.634
398.349
370.673
324.714
320.36
343.444
349.568
395.321
426.979
471.839
426.979
395.319
349.566
343.442
370.231
377.761
422.676
457.206
500.702
457.207
422.673
377.759
370.229
400.161
408.282
451.238
488.216
543.626
488.216
451.236
408.279
400.159
431.596
439.683
478.01
506.978
525.624
506.978
478.008
439.68
431.593
470.944
474.022
503.541
508.749
680.663
508.749
503.539
474.019
470.942
514.635
508.722
524.912
508.528
842.822
508.528
524.91
508.719
514.632
550.784
539.091
543.511
514.861
837.644
514.86
543.51
539.088
550.781
581.981
566.978
563.774
531.013
834.478
531.012
563.773
566.974
581.978
610.531
593.591
585.361
551.027
835.743
551.026
585.36
593.587
610.528
637.196
619.05
607.027
571.584
838.129
571.583
607.025
619.046
637.192
662.027
643.105
627.93
591.542
840.358
591.54
627.929
643.102
662.023
684.844
665.468
647.624
610.682
841.964
610.68
647.622
665.464
684.84
705.411
685.893
665.903
629.182
843.047
629.18
665.902
685.89
705.407
723.432
704.026
682.492
647.395
843.847
647.393
682.491
704.022
723.428
738.605
719.694
697.681
665.682
844.66
665.68
697.68
719.69
738.602
750.327
730.493
707.957
683.869
844.11
683.868
707.956
730.49
750.324
759.455
739.162
724.44
698.973
839.754
698.972
724.439
739.159
759.452
766.024
716.401
659.693
675.57
776.677
675.569
659.692
716.399
766.021
793.001
723.599
870.112
747.129
846.157
747.129
870.111
723.597
792.999
840.77
754.867
951.653
794.835
888.664
794.834
951.652
754.866
840.768
871.433
830.514
1011.71
952.023
1008.47
952.022
1011.71
830.514
871.432
967.291
1100.88
1166
1051.78
979.568
1051.78
1166
1100.88
967.292
277.841
271.488
304.023
245.121
316.077
245.121
304.023
271.488
277.841
314.602
319.554
341.957
270.397
341.326
270.397
341.957
319.554
314.602
255.949
262.134
295.211
264.435
329.119
264.435
295.21
262.134
255.949
258.426
254.108
289.879
264.599
320.119
264.599
289.879
254.108
258.426
267.585
256.94
289.326
267.214
318.548
267.214
289.325
256.939
267.584
274.009
260.966
289.648
271.219
322.807
271.219
289.648
260.966
274.009
278.216
264.954
291.183
277.194
331.607
277.194
291.183
264.953
278.215
282.188
269.827
294.819
286.04
344.31
286.04
294.819
269.826
282.187
287.729
276.869
301.502
298.525
360.6
298.524
301.501
276.868
287.728
296.231
287.198
312.029
315.122
380.205
315.122
312.028
287.197
296.229
308.633
301.584
326.914
335.989
402.963
335.989
326.913
301.582
308.632
325.4
320.362
346.284
360.936
428.167
360.935
346.283
320.36
325.399
346.513
343.444
369.942
389.951
457.985
389.95
369.941
343.442
346.511
371.53
370.231
397.04
421.902
485.303
421.901
397.038
370.229
371.528
399.88
400.161
427.205
459.655
563.277
459.654
427.203
400.159
399.877
431.131
431.595
453.726
480.177
560.195
480.175
453.724
431.593
431.128
467.102
470.944
494.494
442.394
530.893
442.393
494.492
470.941
467.099
505.523
514.634
528.69
393.163
507.601
393.162
528.688
514.631
505.52
540.889
550.784
545.688
374.334
462.815
374.333
545.686
550.781
540.886
573.056
581.981
563.442
381.206
473.572
381.205
563.44
581.978
573.053
602.954
610.53
583.178
395.865
483.077
395.864
583.176
610.528
602.95
631.039
637.195
603.323
412.315
489.581
412.314
603.322
637.192
631.035
657.332
662.026
622.744
429.157
495.512
429.156
622.742
662.023
657.328
681.644
684.843
640.832
446.31
502.399
446.31
640.831
684.84
681.64
703.714
705.41
657.24
463.948
510.966
463.947
657.239
705.407
703.71
723.265
723.431
671.542
482.11
521.536
482.109
671.541
723.429
723.261
740.079
738.605
683.495
500.958
534.609
500.957
683.495
738.602
740.076
754.198
750.327
691.182
518.83
548.752
518.829
691.181
750.324
754.195
766.926
759.455
699.458
540.569
570.147
540.569
699.457
759.452
766.924
781.683
766.023
692.343
545.725
575.002
545.725
692.343
766.022
781.681
810.854
793.001
747.234
626.584
668.226
626.584
747.235
793
810.852
852.17
840.769
857.369
748.852
789.492
748.851
857.369
840.769
852.169
886.954
871.434
786.383
690.72
706.828
690.72
786.384
871.433
886.953
956.698
967.293
596.367
335.154
292.895
335.154
596.367
967.294
956.7
)
;

boundaryField
{
    injectionXMinus
    {
        type            fixedValue;
        value           uniform 400;
    }
    injectionXPlus
    {
        type            fixedValue;
        value           uniform 400;
    }
    injectionYMinus
    {
        type            fixedValue;
        value           uniform 400;
    }
    injectionYPlus
    {
        type            fixedValue;
        value           uniform 400;
    }
    inletXMinus
    {
        type            fixedValue;
        value           uniform 293.15;
    }
    inletXPlus
    {
        type            fixedValue;
        value           uniform 293.15;
    }
    inletYMinus
    {
        type            fixedValue;
        value           uniform 293.15;
    }
    inletYPlus
    {
        type            fixedValue;
        value           uniform 293.15;
    }
    outlet
    {
        type            zeroGradient;
    }
    valve
    {
        type            zeroGradient;
    }
    walls
    {
        type            zeroGradient;
    }
}


// ************************************************************************* //
