/*--------------------------------*- C++ -*----------------------------------*\
  =========                 |
  \\      /  F ield         | OpenFOAM: The Open Source CFD Toolbox
   \\    /   O peration     | Website:  https://openfoam.org
    \\  /    A nd           | Version:  6
     \\/     M anipulation  |
\*---------------------------------------------------------------------------*/
FoamFile
{
    version     2.0;
    format      ascii;
    class       volScalarField;
    location    "1";
    object      alpha_exh;
}
// * * * * * * * * * * * * * * * * * * * * * * * * * * * * * * * * * * * * * //

dimensions      [0 0 0 0 0 0 0];

internalField   nonuniform List<scalar> 
3029
(
1.71232e-07
-1.02696e-06
-8.28948e-07
-4.5605e-06
-6.4569e-06
-4.03434e-06
-6.05383e-07
-9.14358e-07
-5.01928e-07
-5.35236e-07
-1.79695e-06
-1.47106e-06
-6.95828e-06
-9.60991e-06
-6.10251e-06
-1.07538e-06
-1.3169e-06
-6.21303e-07
-1.98802e-06
-4.65256e-06
-4.82255e-06
-1.1036e-05
-1.06628e-05
-9.57905e-06
-3.50312e-06
-3.1742e-06
-1.86108e-06
-4.27253e-06
-8.82833e-06
-9.60929e-06
-1.60147e-05
-8.35605e-06
-1.37744e-05
-6.92319e-06
-5.88878e-06
-3.89234e-06
-7.47758e-06
-1.41776e-05
-1.52264e-05
-2.11309e-05
-1.64623e-07
-1.80309e-05
-1.09341e-05
-9.28474e-06
-6.50762e-06
-1.10858e-05
-1.98221e-05
-2.06688e-05
-2.45022e-05
1.97491e-05
-2.05284e-05
-1.47019e-05
-1.27942e-05
-9.35742e-06
-1.51875e-05
-2.58202e-05
-2.5616e-05
-2.36926e-05
6.11156e-05
-1.88472e-05
-1.79253e-05
-1.6373e-05
-1.22632e-05
-1.88398e-05
-3.08176e-05
-2.80292e-05
-1.21809e-05
0.000142328
-6.48407e-06
-1.86626e-05
-1.90654e-05
-1.47342e-05
-2.19339e-05
-3.44317e-05
-2.55079e-05
2.24477e-05
0.000295981
2.89895e-05
-1.44419e-05
-2.02077e-05
-1.61856e-05
-2.17664e-05
-3.24567e-05
-9.07854e-06
0.000103054
0.000567167
0.000110412
3.59559e-06
-1.60389e-05
-1.45654e-05
-1.46188e-05
-2.027e-05
3.21866e-05
0.000287464
0.00108118
0.00029562
4.64873e-05
-1.50382e-06
-5.48247e-06
1.15881e-05
2.62153e-05
0.000155011
0.000602227
0.00177199
0.000611124
0.000170806
4.69566e-05
2.23521e-05
8.06957e-05
0.000109968
0.000321516
0.00150841
0.00388197
0.00151797
0.000338784
0.000132821
9.3629e-05
0.000236078
0.000450927
0.00124529
0.00168885
0.00227212
0.00169892
0.00126377
0.000475429
0.000250807
0.000629238
0.000537542
0.000153933
0.0104013
0.0294975
0.0104112
0.000173282
0.000563773
0.000646376
0.000975688
0.00288377
0.0163871
-0.00849128
-0.150648
-0.00848236
0.0164063
0.00291104
0.000994878
0.00321504
0.00761112
-0.0382806
-0.25817
-0.384993
-0.258166
-0.0382641
0.00763885
0.00323681
0.00688818
0.0033074
-0.112912
-0.324179
-0.325191
-0.324177
-0.112899
0.00333464
0.00691178
0.0102438
-0.00240323
-0.148203
-0.329915
-0.304334
-0.329913
-0.148192
-0.00237616
0.0102692
0.0132314
-0.00490127
-0.156956
-0.319682
-0.292495
-0.319681
-0.156945
-0.00487444
0.0132576
0.0164443
-0.00399878
-0.152984
-0.304869
-0.281963
-0.304867
-0.152972
-0.00397184
0.0164716
0.0204432
-0.000463626
-0.143385
-0.28863
-0.271209
-0.288628
-0.143372
-0.000436854
0.0204709
0.0256401
0.00515746
-0.131192
-0.271939
-0.260004
-0.271937
-0.13118
0.00518416
0.0256684
0.0323411
0.0126223
-0.117589
-0.255108
-0.248407
-0.255106
-0.117577
0.0126486
0.0323695
0.0407778
0.0218457
-0.10305
-0.238222
-0.236497
-0.238219
-0.103037
0.0218715
0.0408065
0.0511188
0.0327776
-0.0878086
-0.2213
-0.224342
-0.221297
-0.0877959
0.0328025
0.0511473
0.0634503
0.045331
-0.0719856
-0.204225
-0.211907
-0.204222
-0.0719733
0.045355
0.0634788
0.0777487
0.0593108
-0.0558751
-0.187172
-0.199584
-0.187168
-0.0558633
0.0593335
0.0777767
0.0938141
0.0745506
-0.0385893
-0.168264
-0.185476
-0.16826
-0.0385782
0.074572
0.0938417
0.111374
0.0909041
-0.0214752
-0.150847
-0.174287
-0.150844
-0.0214648
0.0909238
0.111401
0.129853
0.10886
0.00403866
-0.115614
-0.142143
-0.115611
0.00404831
0.108878
0.129879
0.151898
0.130825
0.0299296
-0.0911712
-0.123322
-0.0911685
0.0299387
0.130843
0.151924
0.179371
0.161831
0.0595333
-0.0921015
-0.143385
-0.092099
0.0595426
0.161849
0.179398
0.264886
0.256823
0.184296
0.0011642
-0.121873
0.0011676
0.184307
0.256841
0.264911
-1.05825e-06
-4.59349e-06
-7.55517e-06
-9.70819e-06
2.25162e-05
-7.79222e-06
-5.9723e-06
-3.5203e-06
-1.24245e-06
-1.78039e-06
-6.19717e-06
-9.42253e-06
-1.23016e-05
2.01548e-05
-9.86888e-06
-7.20673e-06
-4.29301e-06
-1.26547e-06
-4.58842e-06
-9.35077e-06
-1.32508e-05
-1.59211e-05
2.02982e-05
-1.27542e-05
-9.91169e-06
-6.16823e-06
-2.89501e-06
-8.70487e-06
-1.42067e-05
-1.83377e-05
-1.97517e-05
2.68594e-05
-1.56744e-05
-1.34102e-05
-9.10278e-06
-5.29835e-06
-1.39698e-05
-2.04723e-05
-2.41213e-05
-2.21014e-05
4.84951e-05
-1.70482e-05
-1.73824e-05
-1.29857e-05
-8.36348e-06
-1.9506e-05
-2.70375e-05
-2.89705e-05
-1.76212e-05
0.000102736
-1.15673e-05
-2.02705e-05
-1.68728e-05
-1.13995e-05
-2.53789e-05
-3.36082e-05
-3.14559e-05
3.00259e-06
0.000217222
1.00335e-05
-2.08124e-05
-2.06572e-05
-1.4534e-05
-3.0241e-05
-3.83105e-05
-2.66769e-05
5.93619e-05
0.000437044
6.73569e-05
-1.40596e-05
-2.25486e-05
-1.66736e-05
-3.37132e-05
-3.92556e-05
-6.64665e-06
0.000184441
0.000829704
0.000193355
7.84302e-06
-2.07423e-05
-1.73432e-05
-3.15979e-05
-2.95651e-05
4.80876e-05
0.000437174
0.00149423
0.00044698
6.44469e-05
-8.39817e-06
-1.26189e-05
-1.9273e-05
2.61277e-06
0.00016954
0.000908972
0.00258421
0.0009196
0.000187629
2.63118e-05
2.36814e-06
2.73485e-05
8.88412e-05
0.000435766
0.0017565
0.00424638
0.00176789
0.000455554
0.000114913
5.1356e-05
0.000111242
0.000275191
0.000911838
0.00315708
0.00699502
0.00316909
0.000933113
0.000303463
0.000137646
0.000452359
0.000700249
0.00204889
0.005672
0.00973433
0.00568446
0.0020715
0.000730478
0.000480806
0.000539165
0.00147006
0.00299695
0.00811965
0.019946
0.00813208
0.00302047
0.00150197
0.000569669
0.00288575
0.00276405
0.00951373
0.0248986
0.00625293
0.0249102
0.00953744
0.00279722
0.00291791
0.00761388
0.00720788
0.00770367
-0.0694477
-0.21743
-0.0694386
0.00772615
0.00724173
0.00764752
0.00331087
0.011674
-0.0116156
-0.165479
-0.300908
-0.165473
-0.0115948
0.011708
0.00334494
-0.00239941
0.0144647
-0.026694
-0.204014
-0.311024
-0.204009
-0.0266743
0.0144987
-0.00236513
-0.00489734
0.0167711
-0.03253
-0.210591
-0.300858
-0.210586
-0.0325105
0.0168048
-0.00486314
-0.00399485
0.0197205
-0.0316166
-0.203234
-0.284776
-0.203228
-0.0315973
0.0197539
-0.00396063
-0.000459759
0.0239383
-0.0265358
-0.190089
-0.266746
-0.190083
-0.0265165
0.0239712
-0.000425823
0.00516125
0.0297527
-0.018705
-0.174405
-0.24793
-0.174398
-0.0186859
0.0297849
0.00519489
0.012626
0.0373553
-0.00876831
-0.157263
-0.228531
-0.157257
-0.00874948
0.0373867
0.012659
0.0218493
0.0468666
0.00303956
-0.138931
-0.208404
-0.138924
0.00305787
0.0468969
0.0218816
0.0327811
0.0583297
0.0166111
-0.119265
-0.187195
-0.119259
0.0166287
0.0583588
0.0328122
0.0453344
0.07181
0.0322035
-0.0973745
-0.163746
-0.0973683
0.0322203
0.0718375
0.0453643
0.0593142
0.0868881
0.0492058
-0.0724288
-0.136787
-0.072423
0.0492214
0.0869138
0.0593425
0.0745539
0.104758
0.073392
-0.0355729
-0.0959452
-0.0355677
0.0734062
0.104782
0.0745807
0.0909073
0.120171
0.0874842
0.00200702
-0.0509395
0.00201169
0.0874971
0.120192
0.0909323
0.108863
0.147342
0.189096
0.166169
0.143221
0.166172
0.189105
0.14736
0.108887
0.130828
0.163645
0.225335
0.227666
0.213233
0.227669
0.225343
0.163662
0.13085
0.161834
0.171663
0.174866
0.124055
0.0958339
0.124057
0.174875
0.17168
0.161856
0.256824
0.25776
0.213173
0.0460745
-0.0807377
0.0460786
0.213186
0.257779
0.256844
-8.49791e-07
-7.3346e-06
-3.75576e-06
-4.75834e-05
-0.000196065
-4.40352e-05
-7.41136e-07
-5.5394e-06
-8.16885e-07
-1.38125e-06
-9.01237e-06
-6.05278e-06
-5.04657e-05
-0.000172725
-4.6287e-05
-2.16093e-06
-6.32874e-06
-7.93581e-07
-4.49742e-06
-1.25745e-05
-9.1218e-06
-5.1179e-05
-0.000105189
-4.62709e-05
-4.05615e-06
-8.4867e-06
-2.53153e-06
-8.936e-06
-1.72833e-05
-1.26053e-05
-3.81582e-05
4.42058e-05
-3.24427e-05
-6.05686e-06
-1.1201e-05
-4.91319e-06
-1.41061e-05
-2.26007e-05
-1.48448e-05
8.89483e-06
0.000327108
1.5437e-05
-6.66808e-06
-1.42665e-05
-7.78003e-06
-1.90363e-05
-2.69362e-05
-9.9211e-06
0.000124224
0.000813281
0.000131583
-4.36792e-08
-1.61369e-05
-1.01714e-05
-2.34398e-05
-2.88972e-05
1.25663e-05
0.00035828
0.00159191
0.000366423
2.41292e-05
-1.56608e-05
-1.20665e-05
-2.5306e-05
-2.36133e-05
7.39303e-05
0.000786946
0.00278038
0.000795837
8.71588e-05
-7.89052e-06
-1.13638e-05
-2.22483e-05
-3.1142e-06
0.000209423
0.00151691
0.00452814
0.00152651
0.000224258
1.496e-05
-5.83895e-06
-5.31105e-06
5.20414e-05
0.000480978
0.00269971
0.00702767
0.00270995
0.000497371
7.24568e-05
1.35511e-05
3.64296e-05
0.000173863
0.000984782
0.00453431
0.0105085
0.00454513
0.00100265
0.000196444
5.76212e-05
0.000159693
0.000440404
0.00187666
0.00728917
0.0152561
0.00730048
0.00189591
0.000465107
0.000183144
0.000326618
0.000916746
0.00336125
0.011216
0.0214346
0.0112277
0.00338176
0.000943342
0.000352186
0.00125084
0.00205406
0.0057817
0.0168216
0.0296144
0.0168335
0.00580332
0.00208244
0.00127839
0.000159986
0.00300242
0.00930501
0.0231052
0.0367919
0.0231172
0.00932756
0.00303221
0.000189152
0.0163946
0.00951981
0.0144718
0.03441
0.0566454
0.0344219
0.0144951
0.00955083
0.0164254
-0.0382726
0.00771069
0.0216802
0.0378144
0.0178598
0.0378258
0.0217039
0.00774191
-0.0382436
-0.112905
-0.0116081
0.0275933
0.0221066
-0.0491928
0.0221173
0.0276171
-0.0115778
-0.11288
-0.148197
-0.0266867
0.0320623
0.0102956
-0.0802027
0.0103059
0.0320859
-0.0266573
-0.148174
-0.15695
-0.0325229
0.0367197
0.00810189
-0.0845961
0.00811199
0.0367431
-0.032494
-0.156928
-0.152978
-0.0316098
0.0425723
0.0131902
-0.0754247
0.0132001
0.0425952
-0.0315814
-0.152956
-0.143379
-0.0265294
0.0500896
0.0229041
-0.0598007
0.0229139
0.0501119
-0.0265014
-0.143357
-0.131187
-0.0186989
0.0594675
0.0357377
-0.0408505
0.0357471
0.059489
-0.0186716
-0.131164
-0.117584
-0.00876255
0.0708201
0.0509645
-0.0197378
0.0509736
0.0708408
-0.00873605
-0.117562
-0.103045
0.00304495
0.084244
0.0684097
0.00332135
0.0684184
0.0842638
0.00307045
-0.103023
-0.0878037
0.0166161
0.0998295
0.0883017
0.0288001
0.0883098
0.0998482
0.0166405
-0.0877825
-0.071981
0.0322082
0.118019
0.111519
0.0581695
0.111526
0.118036
0.0322312
-0.0719606
-0.0558708
0.04921
0.138696
0.139889
0.0945603
0.139896
0.138712
0.0492315
-0.0558513
-0.0385852
0.0733958
0.168768
0.180593
0.14745
0.180599
0.168782
0.0734153
-0.0385669
-0.0214714
0.0874876
0.192337
0.24027
0.229619
0.240274
0.192349
0.0875051
-0.0214542
0.00404227
0.189099
0.422009
0.475329
0.496669
0.47533
0.422012
0.189111
0.00405828
0.0299331
0.225337
0.225346
0.0299482
0.059537
0.174868
0.21652
0.213108
0.195599
0.213111
0.216529
0.17488
0.0595528
0.184299
0.213176
0.227761
0.1521
0.0654032
0.152104
0.227774
0.213192
0.184314
0.238427
0.146998
0.0390002
0.147002
0.238442
0.247958
0.15317
0.0386069
0.153175
0.247973
0.256635
0.161081
0.0446359
0.161086
0.256649
0.264985
0.169049
0.0521378
0.169054
0.264999
0.273226
0.176916
0.0599709
0.176921
0.27324
0.281453
0.184728
0.0678729
0.184733
0.281466
0.289689
0.192518
0.0757841
0.192522
0.289703
0.297959
0.20032
0.0837121
0.200324
0.297972
0.306176
0.208057
0.0915681
0.208061
0.306189
0.314709
0.216086
0.0997292
0.21609
0.314721
0.321861
0.222807
0.106532
0.22281
0.321873
0.335083
0.235278
0.119265
0.235282
0.335095
-4.34116e-06
-8.37786e-06
-4.59189e-05
0.000516956
0.00405476
0.00052258
-4.08671e-05
-5.21168e-06
-3.96161e-06
-6.11709e-06
-1.03341e-05
-4.83706e-05
0.000612887
0.00443751
0.000619042
-4.24708e-05
-6.13049e-06
-4.26824e-06
-9.48408e-06
-1.31563e-05
-4.85839e-05
0.000848243
0.00527494
0.00085495
-4.1637e-05
-7.56966e-06
-6.16103e-06
-1.35922e-05
-1.60098e-05
-3.49948e-05
0.00127825
0.00663376
0.00128551
-2.68218e-05
-8.66371e-06
-8.36424e-06
-1.77143e-05
-1.72731e-05
1.26529e-05
0.00197753
0.00858839
0.00198532
2.2116e-05
-8.04555e-06
-1.0561e-05
-2.00365e-05
-1.16803e-05
0.000128561
0.00304694
0.0112389
0.0030552
0.000139332
-4.63735e-07
-1.0747e-05
-1.81749e-05
1.00231e-05
0.000363158
0.00461404
0.0147122
0.00462273
0.000375202
2.31912e-05
-6.87452e-06
-5.65053e-06
6.73869e-05
0.000792308
0.00684048
0.0191676
0.00684954
0.000805587
8.25121e-05
7.7813e-06
2.99345e-05
0.000193375
0.0015227
0.00992356
0.0247955
0.00993292
0.00153715
0.000210367
4.53312e-05
0.000111419
0.000446901
0.00270585
0.0141023
0.0318178
0.0141119
0.0027214
0.000465725
0.000128855
0.000296627
0.000919371
0.00454073
0.0196488
0.0404726
0.0196586
0.00455729
0.000939907
0.000315922
0.000612094
0.00176745
0.00729581
0.0268547
0.0509936
0.0268645
0.00731328
0.00178962
0.00063328
0.00151892
0.00316847
0.0112228
0.0359575
0.0635047
0.0359672
0.0112411
0.0031921
0.00154179
0.00169992
0.00568373
0.0168286
0.0470482
0.0780033
0.0470579
0.0168475
0.00570869
0.00172441
0.0104132
0.00813168
0.0231123
0.0597174
0.0934563
0.0597269
0.0231318
0.00815767
0.0104391
-0.00847867
0.0249115
0.0344176
0.0727307
0.109675
0.0727402
0.034438
0.0249387
-0.00845225
-0.258164
-0.0694364
0.0378228
0.0871203
0.125249
0.0871301
0.037844
-0.0694123
-0.258147
-0.324176
-0.165471
0.0221152
0.100192
0.132814
0.100202
0.0221364
-0.165451
-0.324165
-0.329913
-0.204008
0.010304
0.111842
0.13982
0.111852
0.0103247
-0.20399
-0.329903
-0.319681
-0.210585
0.00811001
0.123821
0.150243
0.123831
0.00813007
-0.210568
-0.319671
-0.304868
-0.203228
0.013198
0.137192
0.16417
0.137202
0.0132173
-0.203211
-0.304857
-0.288629
-0.190084
0.0229115
0.152299
0.180787
0.152307
0.0229301
-0.190067
-0.288618
-0.271938
-0.1744
0.0357447
0.169194
0.199474
0.169202
0.0357625
-0.174383
-0.271927
-0.255108
-0.157259
0.0509712
0.187844
0.219868
0.187851
0.0509881
-0.157243
-0.255097
-0.238222
-0.138927
0.068416
0.208306
0.241891
0.208313
0.0684319
-0.138911
-0.238211
-0.221301
-0.119262
0.0883076
0.230825
0.265762
0.230831
0.0883225
-0.119247
-0.22129
-0.204226
-0.097372
0.111525
0.256052
0.292154
0.256058
0.111538
-0.0973574
-0.204216
-0.187173
-0.0724267
0.139895
0.2857
0.322753
0.285705
0.139907
-0.0724129
-0.187163
-0.168266
-0.0355711
0.180598
0.323761
0.361519
0.323765
0.180608
-0.0355584
-0.168256
-0.15085
0.00200905
0.240274
0.382704
0.418277
0.382706
0.240282
0.0020205
-0.15084
-0.115616
0.166172
0.475331
0.512829
0.536216
0.51283
0.475333
0.166179
-0.115607
-0.0911733
0.227669
0.227674
-0.0911653
-0.0921034
0.124056
0.21311
0.260671
0.267444
0.260674
0.213115
0.124062
-0.0920949
0.00116414
0.0460751
0.152101
0.234858
0.232575
0.234862
0.152109
0.0460837
0.00117244
0.146999
0.223474
0.21717
0.223478
0.147011
0.153172
0.223107
0.215029
0.223112
0.153184
0.161082
0.227372
0.218514
0.227377
0.161094
0.16905
0.233334
0.224059
0.233339
0.169062
0.176917
0.239886
0.230314
0.239891
0.176929
0.184729
0.246638
0.236796
0.246643
0.18474
0.192519
0.253448
0.243336
0.253453
0.19253
0.200321
0.260284
0.249887
0.260289
0.200331
0.208058
0.267062
0.25637
0.267066
0.208068
0.216088
0.274065
0.263052
0.27407
0.216097
0.222808
0.27996
0.268675
0.279965
0.222817
0.235279
0.29074
0.278919
0.290745
0.235288
-4.50907e-06
2.71239e-05
-0.000189738
0.00406053
0.0201347
0.00406642
-0.000183922
3.08667e-05
-4.19425e-06
-6.31636e-06
2.58864e-05
-0.000165598
0.00444359
0.0210674
0.00444978
-0.000159182
3.06797e-05
-3.85747e-06
-6.09433e-06
2.72704e-05
-9.72262e-05
0.00528129
0.0229692
0.00528774
-9.00908e-05
3.32276e-05
-2.13009e-06
-2.46795e-06
3.51846e-05
5.30228e-05
0.0066403
0.0258438
0.006647
6.09929e-05
4.24919e-05
3.08591e-06
7.07564e-06
5.82081e-05
0.000336749
0.00859508
0.0296832
0.00860199
0.000345589
6.69033e-05
1.40585e-05
2.83197e-05
0.000113793
0.000823671
0.0112457
0.0345178
0.0112528
0.00083339
0.000123944
3.69069e-05
7.09604e-05
0.000229535
0.00160296
0.014719
0.0404218
0.0147262
0.00161353
0.000241114
8.10056e-05
0.000153359
0.000450487
0.00279197
0.0191743
0.0475158
0.0191816
0.00280335
0.000463504
0.000165012
0.000308105
0.000844134
0.00454016
0.0248021
0.0559569
0.0248094
0.00455231
0.00085853
0.000321203
0.000580264
0.00150949
0.00704
0.0318243
0.0659326
0.0318316
0.00705284
0.00152523
0.000594926
0.00109513
0.00260013
0.010521
0.0404788
0.0776403
0.040486
0.0105345
0.00261714
0.00111118
0.00178665
0.00426277
0.0152687
0.0509996
0.0912619
0.0510066
0.0152827
0.00428098
0.00180418
0.00389723
0.00701171
0.0214472
0.0635105
0.106894
0.0635172
0.0214616
0.00703102
0.00391606
0.00228768
0.00975109
0.0296268
0.0780087
0.124438
0.0780153
0.0296417
0.00977136
0.00230777
0.0295141
0.0199628
0.0368043
0.0934615
0.143428
0.0934679
0.0368195
0.0199842
0.0295361
-0.150637
0.00626899
0.0566583
0.10968
0.162492
0.109686
0.0566748
0.0062911
-0.150618
-0.38499
-0.217421
0.0178722
0.125255
0.181678
0.125262
0.0178892
-0.217405
-0.38498
-0.32519
-0.300904
-0.0491822
0.13282
0.200617
0.132828
-0.0491661
-0.300892
-0.325182
-0.304333
-0.311021
-0.0801935
0.139826
0.218662
0.139834
-0.0801782
-0.31101
-0.304325
-0.292494
-0.300856
-0.0845877
0.150248
0.236233
0.150255
-0.0845731
-0.300845
-0.292486
-0.281963
-0.284775
-0.0754169
0.164176
0.253988
0.164182
-0.0754029
-0.284763
-0.281954
-0.271209
-0.266745
-0.0597934
0.180792
0.272368
0.180799
-0.05978
-0.266733
-0.2712
-0.260005
-0.24793
-0.0408438
0.199479
0.291596
0.199484
-0.040831
-0.247918
-0.259996
-0.248409
-0.228531
-0.0197317
0.219873
0.311753
0.219878
-0.0197195
-0.228519
-0.2484
-0.236499
-0.208405
0.00332697
0.241896
0.332893
0.2419
0.0033385
-0.208394
-0.23649
-0.224345
-0.187197
0.0288051
0.265766
0.355108
0.26577
0.028816
-0.187186
-0.224337
-0.211912
-0.163748
0.058174
0.292158
0.378649
0.292161
0.0581841
-0.163738
-0.211903
-0.199589
-0.13679
0.0945644
0.322756
0.404132
0.322759
0.0945735
-0.13678
-0.199581
-0.185482
-0.095949
0.147454
0.361522
0.433577
0.361524
0.147462
-0.0959395
-0.185474
-0.174295
-0.0509426
0.229623
0.418279
0.470509
0.418281
0.229628
-0.0509342
-0.174287
-0.142151
0.14322
0.496672
0.536217
0.562006
0.536217
0.496673
0.143225
-0.142144
-0.12333
0.213233
0.213235
-0.123324
-0.143394
0.0958305
0.195597
0.267444
0.313495
0.267446
0.1956
0.095834
-0.143388
-0.121883
-0.080747
0.065398
0.232573
0.312824
0.232574
0.0654015
-0.0807421
-0.121878
0.0389941
0.217168
0.313651
0.217169
0.0390019
0.0386007
0.215026
0.316463
0.21503
0.038608
0.0446297
0.218511
0.320535
0.218516
0.044637
0.0521316
0.224056
0.325179
0.224062
0.052139
0.0599649
0.230311
0.330046
0.230317
0.0599721
0.067867
0.236794
0.334987
0.2368
0.0678741
0.0757782
0.243333
0.339942
0.243339
0.0757852
0.0837063
0.249884
0.344894
0.249891
0.0837132
0.0915623
0.256367
0.349797
0.256374
0.091569
0.0997235
0.263049
0.354831
0.263056
0.0997301
0.106527
0.268672
0.359119
0.268679
0.106533
0.11926
0.278916
0.366775
0.278923
0.119266
-2.917e-06
-4.45249e-06
-3.88925e-05
0.000528548
0.00406955
0.000531158
-3.65153e-05
-3.03609e-06
-3.16251e-06
-4.26506e-06
-5.74775e-06
-4.04403e-05
0.000625416
0.00445299
0.000628245
-3.76936e-05
-3.76105e-06
-3.47585e-06
-6.6357e-06
-7.49746e-06
-3.95594e-05
0.000861751
0.00529102
0.00086485
-3.62933e-05
-4.78177e-06
-5.09012e-06
-9.43469e-06
-8.9959e-06
-2.47294e-05
0.00129275
0.00665034
0.00129616
-2.07931e-05
-5.31251e-06
-6.85345e-06
-1.21613e-05
-8.81942e-06
2.41944e-05
0.00199296
0.00860537
0.0019967
2.88782e-05
-4.06599e-06
-8.58654e-06
-1.31192e-05
-1.79516e-06
0.000141339
0.00306319
0.0112562
0.00306726
0.000146816
4.1319e-06
-8.30397e-06
-9.95104e-06
2.1267e-05
0.000377091
0.00463098
0.0147295
0.00463536
0.000383364
2.83814e-05
-4.00604e-06
3.7961e-06
7.99115e-05
0.000807294
0.00685796
0.0191849
0.00686261
0.000814357
8.82356e-05
1.10568e-05
4.05356e-05
0.000207074
0.00153862
0.00994141
0.0248126
0.00994629
0.00154645
0.000216581
4.89608e-05
0.000123078
0.000461678
0.00272257
0.0141204
0.0318347
0.0141254
0.00273112
0.000472348
0.000132817
0.000309266
0.000935089
0.00455811
0.0196669
0.0404889
0.0196721
0.00456734
0.000946878
0.000320153
0.000625584
0.00178397
0.00731365
0.0268726
0.0510094
0.0268778
0.00732349
0.00179682
0.000637745
0.0015331
0.00318555
0.0112409
0.035975
0.0635198
0.0359802
0.0112513
0.00319943
0.00154639
0.00171451
0.0057011
0.0168467
0.0470653
0.0780176
0.0470704
0.0168575
0.00571596
0.00172906
0.0104274
0.00814869
0.0231302
0.0597339
0.09347
0.059739
0.0231415
0.00816453
0.0104434
-0.00846659
0.0249271
0.0344349
0.0727469
0.109688
0.0727518
0.034447
0.0249446
-0.00844869
-0.258158
-0.0694249
0.0378388
0.0871365
0.125264
0.0871416
0.037852
-0.0694082
-0.258145
-0.324174
-0.165463
0.0221297
0.100208
0.132829
0.100213
0.0221432
-0.165449
-0.324164
-0.329912
-0.204001
0.0103174
0.111858
0.139835
0.111864
0.0103307
-0.203988
-0.329903
-0.31968
-0.21058
0.00812252
0.123836
0.150257
0.123842
0.00813553
-0.210567
-0.319671
-0.304867
-0.203223
0.0132098
0.137207
0.164184
0.137212
0.0132223
-0.20321
-0.304858
-0.288628
-0.190079
0.0229225
0.152312
0.1808
0.152317
0.0229346
-0.190066
-0.288619
-0.271937
-0.174395
0.0357549
0.169206
0.199485
0.16921
0.0357663
-0.174383
-0.271928
-0.255107
-0.157255
0.0509803
0.187855
0.219879
0.187859
0.0509912
-0.157243
-0.255098
-0.238222
-0.138924
0.068424
0.208316
0.241901
0.20832
0.0684342
-0.138912
-0.238213
-0.2213
-0.11926
0.0883143
0.230834
0.265771
0.230837
0.0883239
-0.119249
-0.221291
-0.204227
-0.0973708
0.11153
0.256061
0.292163
0.256064
0.111539
-0.0973601
-0.204218
-0.187174
-0.0724268
0.139898
0.285708
0.32276
0.28571
0.139907
-0.0724166
-0.187166
-0.168268
-0.0355725
0.1806
0.323767
0.361526
0.323769
0.180607
-0.035563
-0.16826
-0.150853
0.00200673
0.240276
0.382708
0.418282
0.382709
0.240281
0.00201492
-0.150845
-0.11562
0.16617
0.475333
0.512831
0.536218
0.512831
0.475333
0.166175
-0.115613
-0.0911783
0.227667
0.227669
-0.0911719
-0.0921103
0.124052
0.213107
0.26067
0.267444
0.260672
0.213111
0.124056
-0.0921032
0.00115491
0.0460671
0.152096
0.234856
0.232572
0.234858
0.152101
0.0460741
0.00116264
0.146994
0.223472
0.217166
0.223474
0.147004
0.153166
0.223105
0.215027
0.223109
0.153175
0.161077
0.22737
0.218514
0.227375
0.161086
0.169045
0.233332
0.224059
0.233337
0.169054
0.176912
0.239885
0.230315
0.23989
0.176921
0.184724
0.246636
0.236798
0.246641
0.184732
0.192514
0.253447
0.243337
0.253451
0.192522
0.200315
0.260282
0.249889
0.260287
0.200323
0.208052
0.26706
0.256372
0.267064
0.20806
0.216081
0.274063
0.263054
0.274068
0.216089
0.222801
0.279958
0.268677
0.279963
0.222809
0.235273
0.290738
0.278921
0.290742
0.23528
-3.14629e-07
-4.21807e-06
2.03396e-06
-3.74754e-05
-0.00018169
-3.62874e-05
3.04877e-06
-3.65695e-06
-4.53573e-07
-6.35845e-07
-5.07467e-06
1.03149e-06
-3.87794e-05
-0.00015685
-3.7451e-05
2.27834e-06
-4.17448e-06
-4.54478e-07
-2.21745e-06
-6.95857e-06
-1.95954e-07
-3.75369e-05
-8.76203e-05
-3.60101e-05
1.39927e-06
-5.60215e-06
-1.65103e-06
-4.42653e-06
-9.27308e-06
-1.31485e-06
-2.22286e-05
6.36313e-05
-2.045e-05
7.49191e-07
-7.25571e-06
-3.17239e-06
-7.05823e-06
-1.18732e-05
-9.4376e-07
2.72306e-05
0.000348406
2.92921e-05
1.66821e-06
-9.0784e-06
-5.15395e-06
-9.40947e-06
-1.33558e-05
6.6573e-06
0.00014494
0.00083637
0.0001473
9.86374e-06
-9.69758e-06
-6.59376e-06
-1.12513e-05
-1.25433e-05
3.17491e-05
0.000381253
0.00161665
0.000383913
3.55724e-05
-7.97169e-06
-7.64875e-06
-1.06996e-05
-4.558e-06
9.55934e-05
0.000812002
0.00280657
0.000814958
0.000100041
9.28725e-07
-6.0836e-06
-5.29882e-06
1.84361e-05
0.000233395
0.00154385
0.00455558
0.00154709
0.000238468
2.48613e-05
1.58159e-07
1.37787e-05
7.59539e-05
0.000507075
0.00272828
0.00705611
0.00273178
0.000512762
8.32731e-05
2.02822e-05
5.75712e-05
0.000199881
0.00101279
0.00456426
0.0105377
0.004568
0.00101908
0.000208114
6.49254e-05
0.000182634
0.00046836
0.00190634
0.00732021
0.0152858
0.00732414
0.00191319
0.000477432
0.000191032
0.000351218
0.000946303
0.00339232
0.0112479
0.0214646
0.0112519
0.00339971
0.000956238
0.000360463
0.00127669
0.00208491
0.00581386
0.016854
0.0296444
0.0168581
0.00582172
0.00209562
0.00128701
0.000186559
0.00303394
0.00933792
0.0231379
0.036822
0.023142
0.0093462
0.00304546
0.000197761
0.0164205
0.00955107
0.0145051
0.0344435
0.056677
0.0344474
0.0145137
0.00956353
0.0164335
-0.038251
0.00773976
0.0217136
0.0378487
0.0178906
0.0378523
0.0217225
0.0077533
-0.0382371
-0.112888
-0.011582
0.0276263
0.0221399
-0.0491658
0.0221433
0.0276353
-0.011568
-0.112875
-0.148183
-0.0266626
0.0320945
0.0103274
-0.0801784
0.0103307
0.0321036
-0.0266486
-0.14817
-0.156937
-0.0325
0.036751
0.00813217
-0.0845736
0.00813549
0.03676
-0.0324861
-0.156925
-0.152966
-0.0315879
0.0426024
0.0132189
-0.0754035
0.0132223
0.0426113
-0.0315742
-0.152953
-0.143367
-0.0265083
0.0501183
0.0229313
-0.0597806
0.0229347
0.0501272
-0.0264949
-0.143354
-0.131175
-0.0186789
0.0594945
0.0357632
-0.0408316
0.0357666
0.0595032
-0.0186658
-0.131163
-0.117573
-0.00874401
0.0708454
0.0509883
-0.0197201
0.0509917
0.0708538
-0.00873131
-0.117561
-0.103035
0.00306175
0.0842672
0.0684317
0.00333792
0.0684349
0.0842754
0.00307406
-0.103023
-0.0877953
0.0166309
0.0998505
0.0883217
0.0288154
0.0883247
0.0998583
0.0166427
-0.0877838
-0.0719743
0.0322207
0.118037
0.111537
0.0581836
0.11154
0.118045
0.0322319
-0.0719631
-0.055866
0.04922
0.138712
0.139905
0.0945731
0.139908
0.138718
0.0492306
-0.0558553
-0.0385824
0.0734032
0.168781
0.180607
0.147462
0.180608
0.168787
0.0734129
-0.0385723
-0.0214706
0.0874928
0.192347
0.240281
0.229629
0.240282
0.192352
0.0875011
-0.0214614
0.00404151
0.189102
0.422014
0.475335
0.496675
0.475335
0.422014
0.189107
0.00404999
0.0299311
0.225339
0.225342
0.0299391
0.0595342
0.174869
0.216523
0.21311
0.195598
0.213111
0.216527
0.174874
0.0595431
0.184299
0.213178
0.227766
0.152101
0.0653976
0.152102
0.227771
0.213185
0.184307
0.238434
0.147003
0.0389973
0.147004
0.238441
0.247965
0.153175
0.0386033
0.153176
0.247971
0.256641
0.161085
0.0446323
0.161086
0.256648
0.264991
0.169053
0.0521344
0.169055
0.264997
0.273232
0.17692
0.0599676
0.176921
0.273238
0.281458
0.184731
0.0678696
0.184733
0.281464
0.289695
0.192521
0.0757808
0.192522
0.2897
0.297964
0.200322
0.0837088
0.200324
0.297969
0.306181
0.208059
0.0915648
0.20806
0.306186
0.314713
0.216088
0.0997259
0.216089
0.314718
0.321865
0.222809
0.106529
0.222809
0.32187
0.335087
0.23528
0.119262
0.235281
0.335091
-6.05097e-07
-2.35206e-06
-4.15055e-06
-3.51152e-06
3.21716e-05
-2.91618e-06
-3.64811e-06
-2.00664e-06
-7.44527e-07
-8.86484e-07
-2.92315e-06
-4.78098e-06
-4.29728e-06
3.2036e-05
-3.63856e-06
-4.1685e-06
-2.32117e-06
-7.03015e-07
-2.16049e-06
-4.27101e-06
-6.44558e-06
-5.42389e-06
3.4691e-05
-4.62778e-06
-5.59498e-06
-3.37139e-06
-1.66698e-06
-4.00716e-06
-6.34266e-06
-8.44252e-06
-6.09589e-06
4.41004e-05
-5.11035e-06
-7.24735e-06
-4.93563e-06
-2.93404e-06
-6.36078e-06
-9.16581e-06
-1.06936e-05
-5.01911e-06
6.86747e-05
-3.80579e-06
-9.06856e-06
-7.18013e-06
-4.78105e-06
-8.76257e-06
-1.19389e-05
-1.17589e-05
2.99669e-06
0.000125867
4.44601e-06
-9.68967e-06
-9.25162e-06
-6.39203e-06
-1.1243e-05
-1.4642e-05
-1.05303e-05
2.70437e-05
0.000243172
2.87438e-05
-7.96773e-06
-1.12608e-05
-8.27536e-06
-1.29086e-05
-1.55579e-05
-2.10449e-06
8.66874e-05
0.00046566
8.86298e-05
9.22937e-07
-1.14238e-05
-9.05513e-06
-1.31206e-05
-1.29011e-05
2.13051e-05
0.0002148
0.000860752
0.000216993
2.48425e-05
-8.05659e-06
-8.64092e-06
-8.14863e-06
1.35876e-07
7.92368e-05
0.00047033
0.00152747
0.000472757
8.32344e-05
5.72184e-06
-2.74182e-06
7.06378e-06
3.53878e-05
0.000203547
0.000944608
0.00261936
0.000947268
0.000208052
4.16626e-05
1.3097e-05
5.60595e-05
0.000124359
0.0004724
0.00179432
0.00428312
0.00179717
0.00047734
0.000131337
6.3027e-05
0.00014233
0.000313129
0.000950701
0.0031967
0.00703303
0.00319973
0.000956113
0.00032075
0.000149905
0.000485223
0.000740199
0.0020897
0.00571306
0.00977317
0.00571619
0.00209546
0.000748454
0.000493708
0.00057375
0.0015116
0.00303917
0.00816159
0.0199858
0.00816467
0.00304525
0.00152042
0.000582795
0.00292123
0.00280664
0.00955723
0.0249419
0.00629203
0.0249447
0.00956329
0.00281593
0.00293115
0.00764945
0.00725089
0.00774723
-0.0694111
-0.217406
-0.0694088
0.00775301
0.00726058
0.00766022
0.00334526
0.0117168
-0.0115738
-0.165452
-0.300894
-0.16545
-0.0115685
0.0117268
0.00335694
-0.00236591
0.014507
-0.0266543
-0.203991
-0.311013
-0.20399
-0.0266491
0.0145172
-0.00235387
-0.0048648
0.0168124
-0.0324918
-0.210571
-0.300848
-0.210569
-0.0324866
0.0168227
-0.00485243
-0.00396292
0.0197608
-0.03158
-0.203214
-0.284767
-0.203212
-0.0315746
0.0197711
-0.00395055
-0.000428784
0.0239771
-0.0265007
-0.19007
-0.266737
-0.190068
-0.0264953
0.0239875
-0.000416311
0.00519128
0.0297899
-0.0186715
-0.174387
-0.247922
-0.174385
-0.0186661
0.0298002
0.0052036
0.0126546
0.0373905
-0.00873686
-0.157247
-0.228523
-0.157244
-0.0087314
0.0374007
0.0126668
0.0218763
0.0468994
0.00306869
-0.138916
-0.208397
-0.138913
0.00307412
0.0469093
0.0218883
0.032806
0.0583598
0.0166376
-0.119252
-0.18719
-0.11925
0.0166429
0.0583694
0.0328177
0.045357
0.071837
0.0322272
-0.0973632
-0.163742
-0.097361
0.0322323
0.0718463
0.0453683
0.059334
0.0869117
0.0492264
-0.0724194
-0.136785
-0.0724174
0.0492311
0.0869204
0.0593449
0.0745709
0.104778
0.0734093
-0.0355653
-0.0959438
-0.0355636
0.0734135
0.104786
0.0745812
0.0909214
0.120187
0.0874983
0.00201363
-0.0509379
0.0020148
0.0875018
0.120194
0.0909309
0.108875
0.147355
0.189106
0.166175
0.143224
0.166176
0.189108
0.14736
0.108883
0.130838
0.163656
0.225341
0.22767
0.213235
0.227671
0.225343
0.163661
0.130846
0.161844
0.171673
0.174873
0.124056
0.0958314
0.124056
0.174875
0.171679
0.161853
0.256835
0.257772
0.213183
0.0460729
-0.0807483
0.0460742
0.213186
0.257777
0.25684
-3.38068e-07
-8.86682e-07
-5.54899e-07
-3.34071e-06
-3.45109e-06
-3.12425e-06
-4.52498e-07
-7.4449e-07
-3.46565e-07
-4.29861e-07
-9.17685e-07
-5.63242e-07
-3.67061e-06
-3.13108e-06
-3.44543e-06
-4.5492e-07
-7.03332e-07
-2.23087e-07
-1.30271e-06
-2.12672e-06
-1.91302e-06
-5.34682e-06
-1.347e-06
-5.04309e-06
-1.65196e-06
-1.66787e-06
-6.95188e-07
-2.73419e-06
-3.88267e-06
-3.73594e-06
-7.23464e-06
3.95737e-06
-6.78303e-06
-3.17751e-06
-2.93735e-06
-1.33094e-06
-4.60343e-06
-6.1851e-06
-5.99886e-06
-9.09373e-06
1.50318e-05
-8.48675e-06
-5.1637e-06
-4.78704e-06
-2.4627e-06
-6.64927e-06
-8.43864e-06
-7.81569e-06