/*--------------------------------*- C++ -*----------------------------------*\
  =========                 |
  \\      /  F ield         | OpenFOAM: The Open Source CFD Toolbox
   \\    /   O peration     | Website:  https://openfoam.org
    \\  /    A nd           | Version:  6
     \\/     M anipulation  |
\*---------------------------------------------------------------------------*/
FoamFile
{
    version     2.0;
    format      ascii;
    class       volScalarField;
    location    "1";
    object      alpha_gas;
}
// * * * * * * * * * * * * * * * * * * * * * * * * * * * * * * * * * * * * * //

dimensions      [0 0 0 0 0 0 0];

internalField   nonuniform List<scalar> 
3029
(
5.92347e-13
5.96548e-13
8.0446e-13
6.20122e-13
-1.94725e-12
6.1955e-13
8.03679e-13
5.96018e-13
5.92284e-13
3.03828e-13
-1.72697e-14
-9.79721e-13
4.22525e-12
1.98243e-11
4.22484e-12
-9.795e-13
-1.82088e-14
3.03521e-13
1.15372e-12
2.67239e-12
2.73289e-12
-3.5703e-11
-1.01909e-10
-3.56972e-11
2.73452e-12
2.67176e-12
1.15338e-12
-5.12511e-12
-1.53298e-11
-9.50314e-12
2.16534e-10
5.29026e-10
2.16514e-10
-9.50846e-12
-1.53292e-11
-5.125e-12
3.06376e-11
8.92669e-11
3.5396e-11
-1.19844e-09
-2.75074e-09
-1.19834e-09
3.54231e-11
8.92628e-11
3.06358e-11
-1.53636e-10
-4.8769e-10
-2.17151e-10
6.34434e-09
1.43461e-08
6.34385e-09
-2.17291e-10
-4.87667e-10
-1.53627e-10
7.29588e-10
2.60596e-09
1.57978e-09
-3.29404e-08
-7.49667e-08
-3.2938e-08
1.58045e-09
2.60583e-09
7.29546e-10
-3.28914e-09
-1.3715e-08
-1.1353e-08
1.69328e-07
3.92213e-07
1.69316e-07
-1.13563e-08
-1.37143e-08
-3.28894e-09
1.41116e-08
7.14545e-08
7.74241e-08
-8.65912e-07
-2.05402e-06
-8.65856e-07
7.74394e-08
7.14504e-08
1.41106e-08
-5.68358e-08
-3.69385e-07
-5.04066e-07
4.41546e-06
1.07682e-05
4.41519e-06
-5.04139e-07
-3.69363e-07
-5.68317e-08
2.06982e-07
1.89618e-06
3.16827e-06
-2.24781e-05
-5.6538e-05
-2.24769e-05
3.16861e-06
1.89605e-06
2.06965e-07
-6.09202e-07
-9.64342e-06
-1.94464e-05
0.000114295
0.000297756
0.000114289
-1.94478e-05
-9.64285e-06
-6.09137e-07
7.02734e-07
4.79588e-05
0.000118243
-0.000580196
-0.00158016
-0.000580171
0.000118248
4.79563e-05
7.02508e-07
8.89612e-06
-0.00022775
-0.000720455
0.00293024
0.00856541
0.00293014
-0.000720473
-0.000227739
8.89671e-06
-0.000103905
0.000954981
0.0044751
-0.0143931
-0.0498928
-0.0143927
0.00447514
0.00095494
-0.000103906
0.000694285
-0.00250197
-0.0282704
0.0558919
0.41735
0.0558904
-0.0282703
-0.00250186
0.000694276
-0.00228436
-0.00975227
0.120411
0.685339
0.999123
0.685337
0.12041
-0.0097522
-0.00228431
-0.00828694
0.00861997
0.342559
0.954126
1.02528
0.954124
0.342556
0.00861948
-0.00828683
-0.0120873
0.0342748
0.467614
1.03015
1.03369
1.03015
0.467609
0.0342736
-0.0120871
-0.0127157
0.0546273
0.521449
1.04389
1.03592
1.04388
0.521443
0.0546256
-0.0127156
-0.0111722
0.0687805
0.540202
1.03782
1.03581
1.03782
0.540196
0.0687782
-0.0111721
-0.00844641
0.0789702
0.54405
1.02551
1.03439
1.02551
0.544043
0.0789676
-0.00844633
-0.00513141
0.0870987
0.542163
1.01142
1.03198
1.01142
0.542156
0.0870959
-0.00513138
-0.00153143
0.0942956
0.538387
0.997044
1.02876
0.997041
0.53838
0.0942926
-0.00153147
0.00220137
0.101206
0.534422
0.982893
1.02486
0.982889
0.534414
0.101203
0.00220126
0.00598587
0.108279
0.531135
0.969131
1.02033
0.969128
0.531127
0.108276
0.00598568
0.00978071
0.11592
0.529027
0.955612
1.01503
0.955608
0.52902
0.115917
0.00978044
0.0135902
0.124522
0.528371
0.942084
1.00897
0.94208
0.528365
0.124519
0.0135899
0.0175101
0.134135
0.527669
0.925491
0.999179
0.925488
0.527663
0.134133
0.0175096
0.0216936
0.143775
0.524673
0.905764
0.987574
0.905761
0.524668
0.143772
0.0216931
0.0262046
0.149323
0.504965
0.854282
0.93967
0.85428
0.504961
0.149321
0.0262039
0.0277517
0.142341
0.477915
0.825399
0.921448
0.825397
0.477912
0.142339
0.027751
0.0233653
0.107367
0.416432
0.82352
0.964608
0.823518
0.41643
0.107366
0.0233645
0.0157367
0.0437779
0.231526
0.664601
0.947926
0.664602
0.231525
0.0437771
0.015736
5.96549e-13
5.85804e-13
7.63665e-13
5.20924e-13
-1.82042e-12
5.20824e-13
7.63629e-13
5.85135e-13
5.9622e-13
-1.72765e-14
-1.24905e-13
-7.74984e-13
3.06051e-12
1.35056e-11
3.06084e-12
-7.74199e-13
-1.2541e-13
-1.76645e-14
2.67241e-12
3.13734e-12
3.52361e-12
-1.6129e-11
-5.38519e-11
-1.61268e-11
3.52388e-12
3.13683e-12
2.67202e-12
-1.53299e-11
-1.48022e-11
-1.59227e-11
7.44124e-11
2.42494e-10
7.4402e-11
-1.59249e-11
-1.48019e-11
-1.53296e-11
8.92675e-11
7.65557e-11
8.4965e-11
-3.34024e-10
-1.14042e-09
-3.33983e-10
8.49705e-11
7.65526e-11
8.92652e-11
-4.87693e-10
-3.80082e-10
-4.74995e-10
1.48272e-09
5.55241e-09
1.48252e-09
-4.75021e-10
-3.80069e-10
-4.87682e-10
2.60598e-09
1.85728e-09
2.66015e-09
-6.5219e-09
-2.76065e-08
-6.52096e-09
2.66024e-09
1.85721e-09
2.60592e-09
-1.37151e-08
-8.90571e-09
-1.47678e-08
2.81451e-08
1.38976e-07
2.81406e-08
-1.47681e-08
-8.90536e-09
-1.37148e-08
7.14551e-08
4.18325e-08
8.10732e-08
-1.17386e-07
-7.04733e-07
-1.17365e-07
8.10739e-08
4.18307e-08
7.14537e-08
-3.69389e-07
-1.91643e-07
-4.4034e-07
4.6073e-07
3.58875e-06
4.60627e-07
-4.40339e-07
-1.91634e-07
-3.69381e-07
1.89619e-06
8.49549e-07
2.36739e-06
-1.60474e-06
-1.83178e-05
-1.60424e-06
2.36737e-06
8.49507e-07
1.89616e-06
-9.64347e-06
-3.59435e-06
-1.25986e-05
4.05415e-06
9.35613e-05
4.05206e-06
-1.25984e-05
-3.59414e-06
-9.64331e-06
4.7959e-05
1.3914e-05
6.62106e-05
3.64934e-06
-0.000477304
3.65786e-06
6.62094e-05
1.39133e-05
4.79582e-05
-0.00022775
-4.45727e-05
-0.000340591
-0.000177099
0.00241276
-0.000177131
-0.000340584
-4.45703e-05
-0.000227747
0.00095498
7.04606e-05
0.00166166
0.00214664
-0.0116861
0.00214674
0.00166162
7.04553e-05
0.000954967
-0.00250196
0.000485286
-0.00679186
-0.0229968
0.0420633
-0.0229969
-0.0067917
0.000485282
-0.00250192
-0.00975227
-0.00463594
0.00939249
0.223768
0.593549
0.223767
0.00939213
-0.00463584
-0.00975225
0.00861989
-0.00762792
0.0763021
0.506323
0.876097
0.50632
0.0763005
-0.00762783
0.00861971
0.0342746
-0.0037855
0.136412
0.644721
0.95616
0.644717
0.136409
-0.00378552
0.0342742
0.054627
0.00427705
0.175082
0.69728
0.969208
0.697275
0.175079
0.00427685
0.0546263
0.0687799
0.0139834
0.198498
0.711755
0.961058
0.71175
0.198494
0.013983
0.0687791
0.0789693
0.0241224
0.213846
0.711155
0.946361
0.711149
0.213841
0.0241218
0.0789685
0.0870976
0.0342714
0.225336
0.705025
0.929892
0.705019
0.225331
0.0342706
0.0870966
0.0942941
0.0443385
0.235051
0.696767
0.912855
0.696761
0.235046
0.0443376
0.094293
0.101205
0.0543741
0.243904
0.687431
0.895241
0.687425
0.243899
0.0543729
0.101204
0.108277
0.0645489
0.252357
0.676895
0.876364
0.67689
0.252352
0.0645476
0.108276
0.115917
0.0751368
0.260476
0.663728
0.854132
0.663723
0.260471
0.0751354
0.115916
0.124518
0.0868527
0.268557
0.645235
0.824843
0.645231
0.268553
0.0868513
0.124517
0.134132
0.0997993
0.272526
0.610609
0.774843
0.610606
0.272523
0.0997979
0.134131
0.143771
0.117113
0.278584
0.557227
0.699657
0.557224
0.278581
0.117112
0.14377
0.149319
0.12948
0.224564
0.382118
0.467832
0.382117
0.224562
0.129478
0.149318
0.142337
0.137049
0.209392
0.322374
0.391928
0.322373
0.20939
0.137048
0.142336
0.107364
0.114098
0.255635
0.493304
0.593474
0.493303
0.255634
0.114097
0.107362
0.043776
0.0354738
0.171911
0.590098
0.879799
0.590098
0.17191
0.035473
0.0437752
8.04463e-13
7.63667e-13
8.20372e-13
5.44325e-13
-1.1091e-12
5.44001e-13
8.20737e-13
7.63514e-13
8.04107e-13
-9.79712e-13
-7.74976e-13
-7.70449e-13
8.63659e-13
4.68981e-12
8.63072e-13
-7.70128e-13
-7.7511e-13
-9.80052e-13
2.73279e-12
3.52354e-12
3.85134e-12
2.31551e-13
-8.53576e-12
2.3129e-13
3.85136e-12
3.52384e-12
2.73264e-12
-9.50245e-12
-1.59224e-11
-1.75682e-11
-8.53165e-12
2.1307e-11
-8.53345e-12
-1.75679e-11
-1.59215e-11
-9.50373e-12
3.53924e-11
8.49636e-11
8.65473e-11
6.64476e-11
-3.68812e-11
6.64511e-11
8.65455e-11
8.49614e-11
3.53993e-11
-2.17134e-10
-4.7499e-10
-4.23473e-10
-4.1359e-10
-4.17865e-11
-4.13603e-10
-4.23472e-10
-4.74985e-10
-2.1717e-10
1.5797e-09
2.66013e-09
2.06031e-09
2.39979e-09
1.1117e-09
2.39982e-09
2.0603e-09
2.66012e-09
1.57988e-09
-1.13527e-08
-1.47677e-08
-9.92e-09
-1.34919e-08
-9.65428e-09
-1.3492e-08
-9.91996e-09
-1.47677e-08
-1.13535e-08
7.74227e-08
8.10732e-08
4.70272e-08
7.44837e-08
6.86128e-08
7.44833e-08
4.7027e-08
8.10729e-08
7.74267e-08
-5.04061e-07
-4.4034e-07
-2.18203e-07
-4.05914e-07
-4.49734e-07
-4.0591e-07
-2.18202e-07
-4.40339e-07
-5.04079e-07
3.16825e-06
2.36739e-06
9.82718e-07
2.18785e-06
2.82647e-06
2.18782e-06
9.82709e-07
2.36739e-06
3.16833e-06
-1.94464e-05
-1.25986e-05
-4.23971e-06
-1.16622e-05
-1.73365e-05
-1.1662e-05
-4.23966e-06
-1.25986e-05
-1.94467e-05
0.000118243
6.62106e-05
1.70977e-05
6.12928e-05
0.000104913
6.12917e-05
1.70974e-05
6.62105e-05
0.000118244
-0.000720455
-0.000340591
-6.09357e-05
-0.000314155
-0.000632494
-0.000314149
-6.09346e-05
-0.000340591
-0.00072046
0.0044751
0.00166166
0.000160949
0.00151342
0.00383157
0.00151339
0.000160946
0.00166165
0.00447511
-0.0282704
-0.00679184
-3.98596e-05
-0.00592066
-0.0228843
-0.00592054
-3.98529e-05
-0.00679183
-0.0282703
0.120411
0.00939244
-0.00221286
0.00444942
0.079239
0.00444922
-0.00221285
0.00939238
0.12041
0.342558
0.0763018
0.000847914
0.0634105
0.258871
0.0634095
0.000847852
0.0763015
0.342557
0.467613
0.136412
0.00987383
0.118058
0.362408
0.118056
0.00987364
0.136411
0.467611
0.521448
0.175081
0.0216452
0.153606
0.406385
0.153603
0.0216448
0.175081
0.521445
0.540201
0.198497
0.034253
0.175177
0.420576
0.175175
0.0342525
0.198496
0.540198
0.544048
0.213844
0.046953
0.18919
0.422022
0.189187
0.0469523
0.213843
0.544044
0.542161
0.225334
0.0595409
0.199349
0.418364
0.199346
0.0595401
0.225333
0.542157
0.538384
0.235048
0.0719545
0.207607
0.412684
0.207604
0.0719535
0.235047
0.538381
0.534418
0.2439
0.0841936
0.214583
0.405811
0.214579
0.0841925
0.243899
0.534415
0.53113
0.252353
0.0963502
0.220153
0.397184
0.22015
0.096349
0.252352
0.531127
0.529022
0.260471
0.108475
0.223481
0.384835
0.223478
0.108474
0.26047
0.529019
0.528366
0.268552
0.121118
0.222481
0.364389
0.222479
0.121117
0.26855
0.528363
0.527662
0.27252
0.13163
0.211492
0.32594
0.21149
0.131629
0.272519
0.52766
0.524666
0.278577
0.147384
0.177792
0.248447
0.177791
0.147383
0.278576
0.524664
0.504957
0.224559
0.0575407
0.043378
0.046299
0.0433778
0.0575405
0.224558
0.504956
0.477908
0.209387
0.209387
0.477907
0.416424
0.25563
0.198451
0.330953
0.448516
0.330952
0.198451
0.25563
0.416423
0.23152
0.171905
0.157632
0.410646
0.652491
0.410646
0.157632
0.171905
0.231519
0.141965
0.413763
0.694363
0.413763
0.141964
0.137828
0.408684
0.698491
0.408684
0.137827
0.138405
0.405402
0.694743
0.405402
0.138404
0.14073
0.403819
0.689647
0.403819
0.140729
0.14365
0.403062
0.684466
0.403061
0.143649
0.146746
0.402638
0.679387
0.402637
0.146745
0.149872
0.402339
0.674419
0.402339
0.149871
0.152984
0.402085
0.669537
0.402085
0.152983
0.156036
0.40185
0.664782
0.40185
0.156035
0.159157
0.401609
0.659935
0.401608
0.159156
0.161753
0.401416
0.655925
0.401415
0.161752
0.16645
0.401041
0.648669
0.401041
0.16645
6.20115e-13
5.20913e-13
5.44312e-13
4.39579e-13
-2.4099e-13
4.38623e-13
5.44008e-13
5.20589e-13
6.19909e-13
4.22534e-12
3.0606e-12
8.63722e-13
-3.02474e-13
-2.89143e-13
-3.03098e-13
8.63884e-13
3.06053e-12
4.22489e-12
-3.57035e-11
-1.61294e-11
2.31357e-13
4.48249e-12
4.35729e-12
4.48111e-12
2.29343e-13
-1.61307e-11
-3.57021e-11
2.16536e-10
7.44144e-11
-8.53102e-12
-1.78823e-11
-1.75298e-11
-1.78832e-11
-8.52746e-12
7.44184e-11
2.16528e-10
-1.19845e-09
-3.34033e-10
6.64457e-11
7.78467e-11
8.15839e-11
7.78483e-11
6.6439e-11
-3.34039e-10
-1.19841e-09
6.34437e-09
1.48275e-09
-4.13584e-10
-3.43636e-10
-3.82214e-10
-3.43652e-10
-4.13572e-10
1.48277e-09
6.34417e-09
-3.29406e-08
-6.52206e-09
2.39977e-09
1.5561e-09
1.8527e-09
1.55618e-09
2.39975e-09
-6.5221e-09
-3.29396e-08
1.69328e-07
2.81458e-08
-1.34919e-08
-7.11357e-09
-9.156e-09
-7.11395e-09
-1.34919e-08
2.81459e-08
1.69324e-07
-8.65914e-07
-1.17389e-07
7.44838e-08
3.23883e-08
4.57468e-08
3.239e-08
7.44842e-08
-1.17389e-07
-8.65892e-07
4.41546e-06
4.60741e-07
-4.05915e-07
-1.44947e-07
-2.2949e-07
-1.44954e-07
-4.05918e-07
4.60741e-07
4.41535e-06
-2.24781e-05
-1.60478e-06
2.18786e-06
6.27869e-07
1.14939e-06
6.27899e-07
2.18788e-06
-1.60477e-06
-2.24776e-05
0.000114295
4.05424e-06
-1.16622e-05
-2.56987e-06
-5.70957e-06
-2.56998e-06
-1.16623e-05
4.05418e-06
0.000114292
-0.000580194
3.64936e-06
6.12928e-05
9.43698e-06
2.77806e-05
9.43733e-06
6.12935e-05
3.64969e-06
-0.000580183
0.00293023
-0.000177101
-0.000314155
-2.64031e-05
-0.00012828
-2.64039e-05
-0.000314158
-0.000177103
0.00293019
-0.0143931
0.00214665
0.00151342
5.761e-06
0.000509794
5.76097e-06
0.00151343
0.00214666
-0.0143929
0.0558915
-0.0229968
-0.00592064
0.000652805
-0.0010561
0.000652817
-0.00592069
-0.0229968
0.0558907
0.685339
0.223768
0.00444937
-0.00467973
-0.00822873
-0.00467979
0.0044494
0.223767
0.685337
0.954125
0.506322
0.0634102
-0.00938044
-0.00125337
-0.00938057
0.0634104
0.506321
0.954124
1.03015
0.64472
0.118057
-0.0079145
0.011991
-0.00791465
0.118057
0.644719
1.03015
1.04389
0.697279
0.153605
-0.00220227
0.0237889
-0.00220242
0.153605
0.697277
1.04388
1.03782
0.711754
0.175176
0.0053522
0.0329014
0.00535206
0.175177
0.711752
1.03782
1.02551
0.711153
0.189188
0.0134984
0.040135
0.0134983
0.189189
0.711151
1.02551
1.01142
0.705022
0.199346
0.0217373
0.0462672
0.0217372
0.199348
0.705021
1.01142
0.997044
0.696764
0.207604
0.0298375
0.0517437
0.0298373
0.207605
0.696762
0.997041
0.982893
0.687428
0.214578
0.0376792
0.0566986
0.037679
0.214579
0.687426
0.98289
0.969132
0.676891
0.220149
0.0450929
0.0609833
0.0450927
0.22015
0.67689
0.969129
0.955612
0.663723
0.223476
0.0517607
0.0641436
0.0517606
0.223476
0.663722
0.95561
0.942084
0.645231
0.222476
0.0567808
0.0650494
0.0567807
0.222476
0.645229
0.942081
0.925491
0.610604
0.211486
0.0589368
0.0619377
0.0589367
0.211487
0.610603
0.925489
0.905764
0.557221
0.177786
0.050017
0.0485118
0.050017
0.177787
0.55722
0.905762
0.854281
0.382113
0.0433753
0.0422301
0.0378262
0.0422301
0.0433754
0.382113
0.85428
0.825397
0.322369
0.32237
0.825397
0.823517
0.4933
0.330948
0.271821
0.340642
0.271821
0.330949
0.493301
0.823517
0.664597
0.590093
0.410641
0.305827
0.394892
0.305828
0.410643
0.590094
0.664598
0.413757
0.326908
0.423033
0.32691
0.413755
0.408679
0.336081
0.433481
0.336082
0.408677
0.405397
0.34048
0.436871
0.34048
0.405395
0.403815
0.343202
0.437781
0.343202
0.403813
0.403057
0.345339
0.437868
0.345339
0.403055
0.402633
0.347252
0.437694
0.347251
0.402631
0.402335
0.349056
0.437444
0.349056
0.402333
0.402081
0.350794
0.437177
0.350794
0.402079
0.401846
0.352463
0.436915
0.352463
0.401844
0.401604
0.354133
0.436648
0.354133
0.401603
0.401412
0.355516
0.436434
0.355515
0.40141
0.401037
0.357928
0.436046
0.357927
0.401036
-1.94723e-12
-1.8204e-12
-1.1091e-12
-2.41001e-13
1.23502e-14
-2.40582e-13
-1.10838e-12
-1.81989e-12
-1.94722e-12
1.98242e-11
1.35055e-11
4.68988e-12
-2.89114e-13
-1.16546e-12
-2.86968e-13
4.69281e-12
1.35068e-11
1.98235e-11
-1.01909e-10
-5.38518e-11
-8.53606e-12
4.35729e-12
3.6095e-12
4.35718e-12
-8.54044e-12
-5.38567e-11
-1.01907e-10
5.29023e-10
2.42494e-10
2.13082e-11
-1.75301e-11
-1.21481e-11
-1.75314e-11
2.13145e-11
2.42502e-10
5.29016e-10
-2.75073e-09
-1.14042e-09
-3.68862e-11
8.15857e-11
4.92821e-11
8.15888e-11
-3.69084e-11
-1.14045e-09
-2.7507e-09
1.43461e-08
5.55241e-09
-4.17662e-11
-3.82224e-10
-2.07069e-10
-3.82257e-10
-4.1697e-11
5.5525e-09
1.43459e-08
-7.49663e-08
-2.76065e-08
1.11161e-09
1.85275e-09
8.98635e-10
1.85293e-09
1.11133e-09
-2.76069e-08
-7.49657e-08
3.92211e-07
1.38976e-07
-9.65395e-09
-9.15623e-09
-3.89768e-09
-9.15713e-09
-9.65271e-09
1.38978e-07
3.92208e-07
-2.05401e-06
-7.04733e-07
6.86115e-08
4.57477e-08
1.65736e-08
4.57522e-08
6.86061e-08
-7.04741e-07
-2.054e-06
1.07682e-05
3.58875e-06
-4.49729e-07
-2.29494e-07
-6.75295e-08
-2.29515e-07
-4.49706e-07
3.58879e-06
1.07681e-05
-5.65379e-05
-1.83177e-05
2.82645e-06
1.1494e-06
2.54254e-07
1.1495e-06
2.82635e-06
-1.83179e-05
-5.65376e-05
0.000297755
9.35611e-05
-1.73365e-05
-5.70962e-06
-8.13742e-07
-5.71008e-06
-1.73361e-05
9.35617e-05
0.000297754
-0.00158016
-0.000477303
0.000104913
2.77808e-05
1.58118e-06
2.77827e-05
0.000104912
-0.000477305
-0.00158015
0.0085654
0.00241275
-0.000632494
-0.00012828
5.08442e-06
-0.000128288
-0.00063249
0.00241275
0.00856537
-0.0498927
-0.011686
0.00383157
0.000509793
-8.50047e-05
0.000509819
0.00383157
-0.011686
-0.0498926
0.417349
0.042063
-0.0228843
-0.00105609
0.00058054
-0.00105614
-0.0228843
0.042063
0.417348
0.999123
0.593548
0.0792388
-0.00822872
-0.00173468
-0.00822885
0.0792391
0.593548
0.999123
1.02528
0.876096
0.258871
-0.00125342
-0.00708183
-0.00125334
0.258872
0.876096
1.02528
1.03369
0.95616
0.362408
0.0119908
-0.0106222
0.0119912
0.362409
0.956159
1.03369
1.03592
0.969208
0.406384
0.0237886
-0.011139
0.0237893
0.406385
0.969207
1.03592
1.03581
0.961058
0.420575
0.0329008
-0.00943564
0.0329018
0.420576
0.961057
1.03581
1.03439
0.946361
0.422021
0.0401342
-0.00645033
0.0401354
0.422023
0.94636
1.03439
1.03198
0.929893
0.418362
0.0462661
-0.00274192
0.0462674
0.418364
0.929892
1.03198
1.02876
0.912856
0.412682
0.0517425
0.00126986
0.0517438
0.412684
0.912855
1.02876
1.02486
0.895243
0.405809
0.0566971
0.00542536
0.0566984
0.405811
0.895241
1.02486
1.02033
0.876366
0.397181
0.0609817
0.00966435
0.0609829
0.397183
0.876365
1.02033
1.01503
0.854134
0.384833
0.0641418
0.0139549
0.0641429
0.384834
0.854133
1.01503
1.00898
0.824846
0.364386
0.0650475
0.0182275
0.0650484
0.364387
0.824845
1.00897
0.999185
0.774846
0.325937
0.0619357
0.0224922
0.0619364
0.325938
0.774845
0.999183
0.987581
0.699658
0.248443
0.0485099
0.0260137
0.0485103
0.248444
0.699658
0.98758
0.939676
0.467832
0.0462957
0.0378252
0.0291486
0.0378254
0.0462961
0.467832
0.939676
0.921455
0.391926
0.391928
0.921455
0.964616
0.593476
0.448515
0.340642
0.306695
0.340643
0.448517
0.593477
0.964615
0.947934
0.879806
0.652495
0.394892
0.309026
0.394896
0.652497
0.879807
0.947935
0.694367
0.423034
0.314281
0.423038
0.694365
0.698496
0.433482
0.31888
0.433485
0.698494
0.694747
0.436872
0.322568
0.436874
0.694746
0.689651
0.437782
0.325718
0.437784
0.689649
0.68447
0.437869
0.328594
0.437871
0.684468
0.679391
0.437695
0.331318
0.437696
0.67939
0.674423
0.437446
0.33394
0.437447
0.674422
0.669541
0.437178
0.336483
0.437179
0.66954
0.664786
0.436916
0.338935
0.436917
0.664785
0.659938
0.436649
0.341394
0.43665
0.659937
0.655928
0.436436
0.343429
0.436436
0.655927
0.648672
0.436047
0.347
0.436048
0.648671
6.19551e-13
5.20826e-13
5.44e-13
4.38627e-13
-2.40586e-13
4.39751e-13
5.44312e-13
5.20766e-13
6.19776e-13
4.22473e-12
3.06076e-12
8.63055e-13
-3.03103e-13
-2.86957e-13
-3.02815e-13
8.63123e-13
3.05965e-12
4.22453e-12
-3.56965e-11
-1.61266e-11
2.31251e-13
4.48112e-12
4.3572e-12
4.48112e-12
2.3066e-13
-1.61274e-11
-3.56968e-11
2.1651e-10
7.44013e-11
-8.53327e-12
-1.78834e-11
-1.75316e-11
-1.78842e-11
-8.52948e-12
7.44092e-11
2.16512e-10
-1.19832e-09
-3.3398e-10
6.64504e-11
7.78496e-11
8.15897e-11
7.78508e-11
6.64425e-11
-3.34004e-10
-1.19833e-09
6.34377e-09
1.48251e-09
-4.13601e-10
-3.43658e-10
-3.82262e-10
-3.4367e-10
-4.13583e-10
1.4826e-09
6.34382e-09
-3.29377e-08
-6.52093e-09
2.39982e-09
1.55621e-09
1.85295e-09
1.55627e-09
2.39978e-09
-6.52135e-09
-3.2938e-08
1.69315e-07
2.81405e-08
-1.3492e-08
-7.11407e-09
-9.15721e-09
-7.11436e-09
-1.34919e-08
2.81425e-08
1.69316e-07
-8.6585e-07
-1.17364e-07
7.44835e-08
3.23904e-08
4.57525e-08
3.23918e-08
7.44838e-08
-1.17373e-07
-8.65856e-07
4.41516e-06
4.60623e-07
-4.05911e-07
-1.44956e-07
-2.29516e-07
-1.44962e-07
-4.05914e-07
4.60666e-07
4.41519e-06
-2.24767e-05
-1.60422e-06
2.18783e-06
6.27905e-07
1.1495e-06
6.27928e-07
2.18785e-06
-1.60441e-06
-2.24769e-05
0.000114289
4.05197e-06
-1.1662e-05
-2.57e-06
-5.71007e-06
-2.57009e-06
-1.16622e-05
4.05278e-06
0.000114289
-0.000580169
3.65831e-06
6.12918e-05
9.43736e-06
2.77827e-05
9.43767e-06
6.12927e-05
3.65513e-06
-0.000580171
0.00293013
-0.000177133
-0.000314149
-2.64039e-05
-0.000128287
-2.64047e-05
-0.000314154
-0.000177122
0.00293014
-0.0143927
0.00214675
0.0015134
5.76079e-06
0.000509816
5.76173e-06
0.00151342
0.00214672
-0.0143927
0.0558902
-0.0229969
-0.00592054
0.000652816
-0.00105613
0.000652822
-0.00592061
-0.0229969
0.05589
0.685337
0.223766
0.00444919
-0.00467977
-0.00822882
-0.00467981
0.00444929
0.223767
0.685336
0.954124
0.50632
0.0634094
-0.00938053
-0.00125338
-0.00938061
0.06341
0.50632
0.954123
1.03015
0.644717
0.118056
-0.00791462
0.011991
-0.0079147
0.118057
0.644718
1.03015
1.04388
0.697276
0.153603
-0.00220243
0.023789
-0.00220248
0.153605
0.697276
1.04388
1.03782
0.711751
0.175175
0.005352
0.0329013
0.00535198
0.175176
0.711752
1.03782
1.02551
0.711151
0.189187
0.0134981
0.0401347
0.0134981
0.189189
0.711151
1.02551
1.01142
0.705021
0.199346
0.021737
0.0462665
0.0217371
0.199348
0.705021
1.01142
0.997043
0.696764
0.207604
0.0298371
0.0517427
0.0298372
0.207606
0.696764
0.997042
0.982893
0.687429
0.214579
0.0376788
0.0566972
0.0376788
0.214581
0.687429
0.982891
0.969132
0.676894
0.220151
0.0450924
0.0609815
0.0450925
0.220152
0.676894
0.969131
0.955614
0.663728
0.223478
0.0517601
0.0641414
0.0517602
0.22348
0.663728
0.955613
0.942087
0.645236
0.222479
0.0567801
0.0650467
0.0567802
0.222481
0.645237
0.942086
0.925496
0.610611
0.21149
0.0589359
0.0619347
0.058936
0.211491
0.610612
0.925495
0.90577
0.55723
0.17779
0.0500156
0.0485087
0.0500158
0.177791
0.55723
0.90577
0.854289
0.38212
0.0433755
0.0422289
0.0378245
0.042229
0.0433758
0.38212
0.854289
0.825407
0.322375
0.322377
0.825407
0.82353
0.493309
0.330956
0.271825
0.340642
0.271825
0.330957
0.49331
0.82353
0.664615
0.590109
0.410653
0.305833
0.394896
0.305834
0.410654
0.590109
0.664614
0.413771
0.326915
0.423038
0.326916
0.413767
0.408692
0.336088
0.433485
0.336089
0.408689
0.40541
0.340485
0.436874
0.340485
0.405407
0.403827
0.343207
0.437784
0.343207
0.403824
0.403069
0.345344
0.437871
0.345344
0.403066
0.402645
0.347257
0.437697
0.347256
0.402643
0.402347
0.349062
0.437447
0.349061
0.402344
0.402092
0.350799
0.43718
0.350799
0.40209
0.401857
0.352469
0.436917
0.352468
0.401855
0.401616
0.354138
0.43665
0.354138
0.401614
0.401423
0.355521
0.436437
0.35552
0.401421
0.401048
0.357933
0.436048
0.357932
0.401046
8.0367e-13
7.63619e-13
8.20727e-13
5.44012e-13
-1.10839e-12
5.44303e-13
8.20045e-13
7.63319e-13
8.04103e-13
-9.79503e-13
-7.74202e-13
-7.70135e-13
8.63841e-13
4.69283e-12
8.6316e-13
-7.70187e-13
-7.74774e-13
-9.79803e-13
2.73457e-12
3.5239e-12
3.85137e-12
2.29404e-13
-8.54055e-12
2.30564e-13
3.85302e-12
3.52539e-12
2.73441e-12
-9.50891e-12
-1.5925e-11
-1.75679e-11
-8.52764e-12
2.13149e-11
-8.5292e-12
-1.75687e-11
-1.59247e-11
-9.50779e-12
3.54256e-11
8.4971e-11
8.65457e-11
6.64395e-11
-3.69098e-11
6.64417e-11
8.65436e-11
8.4966e-11
3.54208e-11
-2.17303e-10
-4.75023e-10
-4.23472e-10
-4.13573e-10
-4.16919e-11
-4.13581e-10
-4.23473e-10
-4.75011e-10
-2.17277e-10
1.58051e-09
2.66025e-09
2.0603e-09
2.39976e-09
1.11131e-09
2.39977e-09
2.0603e-09
2.6602e-09
1.58038e-09
-1.13565e-08
-1.47681e-08
-9.91998e-09
-1.34919e-08
-9.65267e-09
-1.34919e-08
-9.91998e-09
-1.47679e-08
-1.13559e-08
7.74405e-08
8.10741e-08
4.70271e-08
7.44843e-08
6.8606e-08
7.44838e-08
4.7027e-08
8.10736e-08
7.74375e-08
-5.04143e-07
-4.4034e-07
-2.18202e-07
-4.05918e-07
-4.49707e-07
-4.05914e-07
-2.18202e-07
-4.40339e-07
-5.04129e-07
3.16863e-06
2.36737e-06
9.8271e-07
2.18788e-06
2.82636e-06
2.18785e-06
9.82708e-07
2.36738e-06
3.16856e-06
-1.94478e-05
-1.25984e-05
-4.23966e-06
-1.16623e-05
-1.73361e-05
-1.16621e-05
-4.23965e-06
-1.25985e-05
-1.94476e-05
0.000118249
6.62096e-05
1.70974e-05
6.12934e-05
0.000104912
6.12926e-05
1.70973e-05
6.62099e-05
0.000118248
-0.000720474
-0.000340585
-6.09345e-05
-0.000314158
-0.000632491
-0.000314153
-6.09342e-05
-0.000340587
-0.000720471
0.00447514
0.00166162
0.000160945
0.00151343
0.00383157
0.00151341
0.000160944
0.00166164
0.00447514
-0.0282703
-0.0067917
-3.98517e-05
-0.00592067
-0.0228843
-0.00592059
-3.98497e-05
-0.00679175
-0.0282703
0.120409
0.00939211
-0.00221285
0.00444937
0.0792389
0.00444924
-0.00221284
0.0093922
0.12041
0.342555
0.0763005
0.000847848
0.0634104
0.258871
0.0634097
0.000847829
0.0763009
0.342556
0.46761
0.13641
0.00987364
0.118057
0.362408
0.118056
0.00987358
0.13641
0.46761
0.521444
0.175079
0.0216449
0.153605
0.406384
0.153603
0.0216447
0.17508
0.521444
0.540197
0.198494
0.0342526
0.175177
0.420575
0.175175
0.0342524
0.198495
0.540197
0.544044
0.213842
0.0469525
0.189189
0.422022
0.189187
0.0469523
0.213843
0.544044
0.542158
0.225333
0.0595404
0.199348
0.418363
0.199345
0.0595401
0.225334
0.542159
0.538383
0.235048
0.071954
0.207605
0.412682
0.207603
0.0719537
0.235049
0.538383
0.534418
0.243901
0.0841932
0.21458
0.405809
0.214578
0.0841929
0.243902
0.534418
0.531132
0.252355
0.09635
0.220151
0.39718
0.220148
0.0963496
0.252356
0.531132
0.529026
0.260474
0.108475
0.223477
0.384832
0.223475
0.108475
0.260475
0.529026
0.528372
0.268557
0.121118
0.222477
0.364384
0.222476
0.121118
0.268557
0.528372
0.527671
0.272527
0.131631
0.211488
0.325935
0.211486
0.13163
0.272528
0.527671
0.524677
0.278586
0.147385
0.177787
0.24844
0.177786
0.147385
0.278586
0.524677
0.50497
0.224566
0.0575391
0.0433738
0.0462936
0.0433738
0.0575392
0.224566
0.50497
0.477921
0.209393
0.209394
0.477921
0.416439
0.255639
0.198456
0.330953
0.448515
0.330952
0.198455
0.255639
0.416438
0.231531
0.171915
0.157636
0.410649
0.652497
0.410649
0.157636
0.171915
0.231531
0.141969
0.413762
0.694367
0.413762
0.141967
0.137831
0.408684
0.698496
0.408684
0.13783
0.138409
0.405403
0.694747
0.405402
0.138408
0.140734
0.40382
0.689651
0.403819
0.140733
0.143654
0.403062
0.68447
0.403061
0.143653
0.14675
0.402639
0.679391
0.402638
0.146749
0.149876
0.402341
0.674424
0.40234
0.149875
0.152988
0.402086
0.669542
0.402086
0.152987
0.15604
0.401852
0.664786
0.401851
0.156039
0.159161
0.40161
0.659939
0.40161
0.15916
0.161757
0.401418
0.655929
0.401417
0.161756
0.166454
0.401043
0.648673
0.401042
0.166454
5.96011e-13
5.85127e-13
7.63505e-13
5.20594e-13
-1.81989e-12
5.20758e-13
7.63321e-13
5.85544e-13
5.96364e-13
-1.82136e-14
-1.25411e-13
-7.75121e-13
3.06043e-12
1.35068e-11
3.05971e-12
-7.74773e-13
-1.25377e-13
-1.83467e-14
2.67176e-12
3.13682e-12
3.52389e-12
-1.61303e-11
-5.38568e-11
-1.61277e-11
3.52537e-12
3.13786e-12
2.67182e-12
-1.53292e-11
-1.48018e-11
-1.59218e-11
7.44169e-11
2.42503e-10
7.44104e-11
-1.59246e-11
-1.48017e-11
-1.53289e-11
8.92629e-11
7.65524e-11
8.49627e-11
-3.34032e-10
-1.14045e-09
-3.34008e-10
8.49655e-11
7.65515e-11
8.92632e-11
-4.87668e-10
-3.80068e-10
-4.7499e-10
1.48274e-09
5.5525e-09
1.48262e-09
-4.75009e-10
-3.80065e-10
-4.87669e-10
2.60583e-09
1.85721e-09
2.66014e-09
-6.52197e-09
-2.76069e-08
-6.52142e-09
2.6602e-09
1.85719e-09
2.60584e-09
-1.37143e-08
-8.90534e-09
-1.47677e-08
2.81453e-08
1.38978e-07
2.81427e-08
-1.47679e-08
-8.90523e-09
-1.37144e-08
7.14506e-08
4.18306e-08
8.10731e-08
-1.17387e-07
-7.04741e-07
-1.17374e-07
8.10736e-08
4.18301e-08
7.14511e-08
-3.69364e-07
-1.91634e-07
-4.4034e-07
4.60728e-07
3.58878e-06
4.60667e-07
-4.40339e-07
-1.91631e-07
-3.69367e-07
1.89606e-06
8.49504e-07
2.36739e-06
-1.60471e-06
-1.83179e-05
-1.60441e-06
2.36738e-06
8.49492e-07
1.89608e-06
-9.64288e-06
-3.59413e-06
-1.25986e-05
4.05394e-06
9.35616e-05
4.05271e-06
-1.25985e-05
-3.59407e-06
-9.64298e-06
4.79564e-05
1.39133e-05
6.62105e-05
3.65068e-06
-0.000477304
3.6557e-06
6.62098e-05
1.39131e-05
4.79568e-05
-0.000227739
-4.45701e-05
-0.000340591
-0.000177107
0.00241275
-0.000177126
-0.000340587
-4.45694e-05
-0.000227741
0.000954941
7.04546e-05
0.00166165
0.00214668
-0.011686
0.00214673
0.00166163
7.0453e-05
0.000954947
-0.00250185
0.000485285
-0.00679182
-0.0229969
0.0420628
-0.0229969
-0.00679172
0.000485284
-0.00250187
-0.00975222
-0.00463585
0.00939235
0.223767
0.593548
0.223766
0.00939213
-0.00463582
-0.00975223
0.00861946
-0.00762786
0.0763015
0.506321
0.876096
0.50632
0.0763006
-0.00762782
0.0086195
0.0342737
-0.00378556
0.136411
0.644719
0.956159
0.644717
0.13641
-0.00378556
0.0342738
0.0546257
0.00427683
0.175081
0.697278
0.969207
0.697275
0.175079
0.00427677
0.0546259
0.0687785
0.013983
0.198497
0.711753
0.961057
0.71175
0.198494
0.0139829
0.0687788
0.0789681
0.024122
0.213844
0.711153
0.946361
0.71115
0.213841
0.0241218
0.0789684
0.0870965
0.0342708
0.225335
0.705022
0.929892
0.705019
0.225332
0.0342706
0.0870969
0.0942935
0.044338
0.235049
0.696765
0.912855
0.696761
0.235046
0.0443377
0.0942938
0.101205
0.0543736
0.243902
0.687429
0.895242
0.687426
0.243899
0.0543732
0.101205
0.108278
0.0645485
0.252355
0.676893
0.876365
0.67689
0.252352
0.0645481
0.108278
0.115919
0.0751367
0.260474
0.663726
0.854134
0.663723
0.260471
0.0751363
0.115919
0.124521
0.086853
0.268555
0.645234
0.824845
0.645232
0.268553
0.0868525
0.124521
0.134135
0.0998001
0.272525
0.610608
0.774845
0.610606
0.272522
0.0997996
0.134135
0.143775
0.117115
0.278582
0.557225
0.699658
0.557224
0.278581
0.117115
0.143776
0.149324
0.129482
0.224562
0.382116
0.46783
0.382115
0.224562
0.129481
0.149324
0.142343
0.137052
0.209391
0.322372
0.391926
0.322371
0.209391
0.137051
0.142343
0.107369
0.114101
0.255635
0.493306
0.593477
0.493305
0.255635
0.1141
0.107368
0.0437784
0.0354745
0.17191
0.590104
0.87981
0.590103
0.17191
0.0354746
0.0437784
5.92277e-13
5.96212e-13
8.04097e-13
6.19911e-13
-1.94722e-12
6.1977e-13
8.04105e-13
5.96364e-13
5.92383e-13
3.03516e-13
-1.76639e-14
-9.80066e-13
4.22477e-12
1.98235e-11
4.2246e-12
-9.79804e-13
-1.83479e-14
3.03319e-13
1.15337e-12
2.67199e-12
2.73274e-12
-3.57015e-11
-1.01907e-10
-3.56972e-11
2.73437e-12
2.67182e-12
1.15307e-12
-5.12496e-12
-1.53295e-11
-9.50456e-12
2.16525e-10
5.29017e-10
2.16514e-10
-9.50751e-12
-1.53289e-11
-5.12503e-12
3.06356e-11
8.92647e-11
3.54038e-11
-1.19839e-09
-2.7507e-09
-1.19834e-09
3.54194e-11
8.92633e-11
3.06348e-11
-1.53626e-10
-4.87679e-10
-2.17192e-10
6.34411e-09
1.43459e-08
6.34386e-09
-2.17271e-10
-4.87669e-10
-1.53623e-10
7.29541e-10
2.60591e-09
1.57998e-09
-3.29393e-08
-7.49658e-08
-3.29381e-08
1.58036e-09