/*--------------------------------*- C++ -*----------------------------------*\
  =========                 |
  \\      /  F ield         | OpenFOAM: The Open Source CFD Toolbox
   \\    /   O peration     | Website:  https://openfoam.org
    \\  /    A nd           | Version:  6
     \\/     M anipulation  |
\*---------------------------------------------------------------------------*/
FoamFile
{
    version     2.0;
    format      ascii;
    class       volScalarField;
    location    "0.5";
    object      T;
}
// * * * * * * * * * * * * * * * * * * * * * * * * * * * * * * * * * * * * * //

dimensions      [0 0 0 1 0 0 0];

internalField   nonuniform List<scalar> 
3029
(
278.133
272.086
303.628
247.663
314.02
247.663
303.628
272.086
278.133
314.128
319.01
340.716
272.638
337.311
272.639
340.716
319.01
314.128
255.937
262.297
294.638
267.441
324.012
267.441
294.638
262.297
255.937
258.575
255.006
289.475
268.44
314.247
268.44
289.474
255.005
258.575
267.571
258.395
288.745
271.602
312.13
271.601
288.744
258.394
267.57
273.542
262.64
288.501
275.851
316.282
275.85
288.5
262.638
273.541
276.826
266.226
288.963
282.091
325.841
282.089
288.96
266.224
276.824
279.27
269.994
291.292
291.945
340.706
291.943
291.288
269.991
279.268
283.057
275.764
297.369
307.196
361.113
307.193
297.365
275.761
283.054
290.694
285.913
309.416
329.283
387.172
329.279
309.411
285.909
290.69
304.669
302.783
329.336
359.15
419.39
359.146
329.33
302.778
304.665
326.733
327.933
358.028
396.273
455.36
396.268
358.02
327.927
326.727
357.255
361.447
395.258
443.606
510.039
443.599
395.25
361.439
357.249
394.927
401.839
439.06
487.526
526.186
487.518
439.05
401.83
394.919
437.934
445.798
484.041
588.969
944.262
588.96
484.03
445.788
437.925
484.312
489.902
520.76
531.393
556.855
531.385
520.749
489.891
484.301
545.49
560.597
535.27
341.984
485.195
341.981
535.259
560.583
545.478
614.172
623.851
494.204
245.219
468.844
245.218
494.196
623.836
614.158
666.797
653.177
448.941
206.342
384.228
206.342
448.936
653.162
666.782
704.579
669.737
430.532
206.452
403.907
206.451
430.528
669.722
704.563
733.73
683.718
429.29
217.178
418.812
217.177
429.287
683.704
733.714
758.055
697.21
435.617
229.724
424.219
229.722
435.613
697.196
758.038
779.071
709.894
444.588
242.235
425.431
242.233
444.585
709.88
779.052
797.198
721.157
454.091
254.606
425.489
254.604
454.087
721.143
797.179
812.449
730.507
463.243
267.042
425.694
267.04
463.239
730.494
812.431
824.699
737.49
471.527
279.754
426.577
279.752
471.523
737.477
824.683
833.835
741.651
478.773
293.284
428.852
293.282
478.769
741.638
833.819
839.979
742.261
483.552
306.966
431.84
306.964
483.549
742.249
839.963
844.591
740.207
490.51
326.303
442.662
326.301
490.507
740.196
844.576
851.449
736.266
485.983
333.082
440.117
333.081
485.979
736.256
851.435
874.351
754.464
532.391
408.337
528.841
408.335
532.387
754.454
874.337
912.23
802.709
628.441
500.482
626.213
500.48
628.437
802.701
912.216
947.19
855.811
605.046
447.062
526.262
447.06
605.042
855.803
947.178
1015.72
987.691
532.559
205.219
176.592
205.218
532.556
987.683
1015.7
272.086
256.992
316.063
260.914
271.99
260.913
316.063
256.991
272.085
319.01
349.253
411.5
302.563
288.227
302.563
411.499
349.253
319.01
262.297
289.073
355.762
303.991
293.475
303.991
355.76
289.072
262.297
255.006
263.839
322.527
300.059
297.802
300.058
322.525
263.838
255.005
258.395
258.714
308.294
298.895
305.322
298.893
308.291
258.712
258.393
262.64
260.39
303.272
301.782
317.214
301.781
303.269
260.388
262.638
266.226
264.182
303.23
309.367
333.905
309.364
303.226
264.179
266.223
269.993
269.607
307.529
322.515
355.595
322.512
307.524
269.604
269.99
275.764
278.035
317.161
342.032
382.278
342.028
317.156
278.031
275.76
285.913
291.544
333.503
368.285
413.642
368.279
333.496
291.539
285.908
302.783
312.056
357.499
401.067
449.295
401.061
357.492
312.049
302.777
327.933
340.62
389.127
439.328
487.787
439.321
389.118
340.612
327.926
361.446
376.799
427.148
482.387
532.258
482.38
427.138
376.789
361.438
401.838
418.351
468.465
524.137
566.192
524.129
468.453
418.34
401.829
445.798
461.127
506.971
569.352
669.065
569.342
506.958
461.115
445.786
489.902
500.639
533.455
551.519
557.791
551.511
533.442
500.625
489.889
560.596
545.035
537.788
487.317
849.282
487.31
537.775
545.019
560.58
623.85
581.623
519.692
443.967
1034.05
443.962
519.681
581.606
623.832
653.175
601.667
504.138
417.019
894.812
417.015
504.128
601.65
653.157
669.735
616.133
501.712
414.404
828.514
414.399
501.703
616.116
669.717
683.717
630.037
508.123
422.893
798.359
422.888
508.114
630.021
683.699
697.209
643.863
518.336
434.829
780.384
434.824
518.327
643.847
697.191
709.893
656.912
529.49
447.413
766.793
447.407
529.481
656.897
709.875
721.157
668.54
540.317
459.982
755.55
459.976
540.309
668.526
721.139
730.507
678.319
550.388
472.697
746.356
472.691
550.38
678.306
730.491
737.49
685.783
559.505
486.215
739.637
486.209
559.497
685.769
737.474
741.652
690.565
568.111
501.632
736.426
501.626
568.104
690.552
741.636
742.263
690.125
573.564
520.602
737.654
520.597
573.557
690.113
742.248
740.209
686.956
587.662
544.297
744.56
544.293
587.656
686.945
740.196
736.268
652.895
530.026
549.004
715.737
549
530.02
652.886
736.256
754.466
654.579
775.73
691.49
849.276
691.487
775.725
654.571
754.455
802.712
684.522
861.715
765.511
918.3
765.508
861.71
684.515
802.702
855.813
785.116
878.402
815.305
945.941
815.302
878.397
785.11
855.804
987.693
1118.06
1081.43
828.155
768.901
828.152
1081.42
1118.05
987.685
303.628
316.063
347.701
306.966
293.751
306.965
347.7
316.063
303.628
340.716
411.5
440.41
347.625
307.11
347.624
440.408
411.499
340.716
294.638
355.761
418.237
356.531
318.463
356.53
418.235
355.76
294.638
289.475
322.526
387.672
355.767
331.049
355.766
387.669
322.524
289.474
288.745
308.293
368.444
357.215
347.513
357.212
368.44
308.291
288.743
288.501
303.272
359.618
364.508
368.659
364.505
359.613
303.268
288.499
288.962
303.229
359.02
378.41
394.317
378.407
359.015
303.225
288.959
291.291
307.528
365.824
398.73
423.877
398.725
365.817
307.523
291.287
297.369
317.161
379.91
424.797
456.522
424.791
379.903
317.154
297.363
309.415
333.502
401.141
455.609
491.319
455.603
401.132
333.495
309.409
329.335
357.499
428.952
489.923
527.306
489.916
428.941
357.49
329.327
358.026
389.126
462.136
526.224
563.329
526.215
462.124
389.116
358.017
395.256
427.147
498.644
562.742
598.741
562.733
498.631
427.135
395.246
439.058
468.464
534.966
596.208
629.655
596.199
534.952
468.45
439.046
484.039
506.969
565.804
623.194
664.236
623.184
565.789
506.954
484.026
520.758
533.453
584.504
629.439
641.565
629.43
584.489
533.438
520.743
535.267
537.786
598.909
634.998
832.015
634.989
598.894
537.77
535.252
494.201
519.69
606.566
644.679
1118.47
644.669
606.55
519.675
494.188
448.939
504.136
607.232
645.82
1164.55
645.81
607.218
504.122
448.929
430.53
501.71
610.197
651.537
1149.89
651.526
610.183
501.697
430.521
429.289
508.121
616.709
662.195
1127.32
662.184
616.696
508.109
429.281
435.616
518.335
625.113
675.039
1106.31
675.028
625.1
518.322
435.607
444.588
529.489
633.915
688.208
1087.55
688.197
633.903
529.478
444.579
454.091
540.317
642.409
700.915
1070.43
700.904
642.397
540.306
454.082
463.244
550.388
650.408
713.251
1054.71
713.241
650.397
550.377
463.235
471.529
559.506
658.397
726.373
1040.99
726.363
658.385
559.496
471.521
478.775
568.113
666.465
741.236
1029.51
741.227
666.454
568.103
478.767
483.556
573.566
681.911
768.786
1028.84
768.778
681.902
573.557
483.548
490.514
587.664
698.956
795.679
1026.68
795.672
698.948
587.657
490.508
485.987
530.028
865.419
1041.76
1218.01
1041.75
865.408
530.021
485.981
532.396
775.734
1786.05
1185.53
1363.41
1185.53
1786.05
775.727
532.39
628.447
861.718
861.713
628.441
605.051
878.405
578.395
555.007
687.43
555.005
578.392
878.4
605.046
532.564
1081.44
861.341
761.485
764.9
761.483
861.337
1081.43
532.56
780.772
700.968
691.334
700.966
780.769
786.211
696.07
682.994
696.068
786.208
796.032
699.888
684.622
699.886
796.028
801.604
704.437
688.021
704.435
801.6
804.359
708.606
691.764
708.604
804.356
805.899
712.531
695.649
712.53
805.896
806.997
716.354
699.609
716.352
806.994
807.972
720.155
703.635
720.153
807.97
808.925
723.925
707.673
723.924
808.922
809.96
727.845
711.906
727.844
809.957
810.82
731.116
715.437
731.115
810.818
812.623
737.204
722.076
737.202
812.622
247.664
260.913
306.966
343.655
392.273
343.653
306.964
260.912
247.663
272.639
302.562
347.623
365.017
402.104
365.014
347.622
302.56
272.638
267.441
303.99
356.529
379.217
414.381
379.214
356.526
303.988
267.44
268.44
300.058
355.765
391.448
430.279
391.444
355.762
300.055
268.438
271.601
298.893
357.212
406.785
450.5
406.781
357.208
298.89
271.599
275.85
301.78
364.505
426.967
474.59
426.961
364.499
301.776
275.848
282.089
309.364
378.407
451.816
501.554
451.81
378.401
309.36
282.086
291.943
322.513
398.727
480.365
530.309
480.358
398.719
322.507
291.939
307.194
342.029
424.794
511.402
559.876
511.395
424.784
342.022
307.188
329.28
368.281
455.606
543.735
589.425
543.727
455.596
368.273
329.274
359.147
401.063
489.919
576.267
618.254
576.259
489.907
401.054
359.139
396.27
439.324
526.22
607.935
645.684
607.926
526.206
439.314
396.26
443.602
482.383
562.738
637.582
671.063
637.572
562.724
482.37
443.591
487.522
524.132
596.204
663.577
693.389
663.567
596.19
524.118
487.51
588.964
569.346
623.19
684.668
714.082
684.659
623.175
569.331
588.949
531.388
551.514
629.436
699.286
729.575
699.277
629.42
551.499
531.374
341.982
487.313
634.995
724.201
783.927
724.191
634.98
487.302
341.977
245.219
443.964
644.675
753.489
883.964
753.478
644.661
443.957
245.218
206.342
417.017
645.816
769.839
941.926
769.829
645.803
417.011
206.342
206.451
414.402
651.534
781.097
967.743
781.087
651.52
414.396
206.452
217.178
422.891
662.192
791.876
979.214
791.866
662.179
422.885
217.178
229.723
434.828
675.035
802.925
985.202
802.915
675.024
434.821
229.723
242.234
447.411
688.205
813.839
989.015
813.829
688.193
447.405
242.234
254.605
459.981
700.912
824.607
991.869
824.597
700.901
459.975
254.604
267.041
472.696
713.248
835.478
994.44
835.468
713.237
472.69
267.04
279.754
486.213
726.37
847.513
997.633
847.505
726.359
486.207
279.752
293.284
501.631
741.233
862.556
1002.81
862.549
741.224
501.625
293.282
306.966
520.602
768.784
888.153
1014.93
888.146
768.775
520.596
306.964
326.303
544.297
795.677
925.384
1033.74
925.378
795.669
544.291
326.301
333.083
549.004
1041.76
1065.49
1106.83
1065.49
1041.75
548.999
333.081
408.338
691.491
1185.53
677.898
740.136
677.897
1185.53
691.487
408.336
500.484
765.512
765.51
500.482
447.065
815.308
555.008
440.759
530.46
440.758
555.006
815.306
447.064
205.222
828.162
761.49
709.495
727.646
709.492
761.487
828.16
205.221
700.972
683.872
703.262
683.869
700.971
696.075
664.486
680.496
664.482
696.072
699.892
658.439
670.379
658.435
699.89
704.441
658.448
667.179
658.445
704.438
708.61
660.583
666.858
660.58
708.607
712.536
663.444
667.683
663.442
712.533
716.358
666.554
668.972
666.552
716.356
720.159
669.771
670.486
669.769
720.157
723.93
673.006
672.11
673.004
723.927
727.849
676.403
673.931
676.402
727.847
731.121
679.223
675.426
679.221
731.119
737.208
684.615
678.63
684.613
737.206
314.02
271.989
293.748
392.269
503.086
392.264
293.746
271.988
314.02
337.311
288.226
307.108
402.1
508.244
402.095
307.105
288.225
337.309
324.011
293.473
318.46
414.376
515.168
414.371
318.457
293.471
324.009
314.246
297.8
331.046
430.275
525.301
430.27
331.042
297.798
314.243
312.129
305.32
347.509
450.496
539.247
450.49
347.504
305.317
312.125
316.28
317.211
368.654
474.585
556.541
474.579
368.648
317.208
316.277
325.838
333.901
394.311
501.549
576.284
501.542
394.305
333.897
325.834
340.703
355.591
423.872
530.303
597.568
530.296
423.864
355.586
340.699
361.109
382.273
456.516
559.87
619.617
559.862
456.508
382.267
361.103
387.167
413.636
491.313
589.42
641.804
589.412
491.304
413.629
387.16
419.385
449.289
527.299
618.249
663.595
618.241
527.289
449.281
419.377
455.354
487.78
563.322
645.68
684.48
645.671
563.31
487.77
455.346
510.032
532.25
598.734
671.059
703.981
671.05
598.721
532.239
510.023
526.179
566.184
629.648
693.385
721.817
693.376
629.636
566.173
526.169
944.251
669.057
664.229
714.079
739.528
714.07
664.217
669.044
944.232
556.85
557.784
641.559
729.572
762.381
729.563
641.545
557.772
556.838
485.195
849.278
832.008
783.924
807.773
783.913
831.993
849.271
485.195
468.844
1034.04
1118.46
883.96
863.285
883.948
1118.45
1034.04
468.845
384.228
894.812
1164.54
941.922
900.203
941.91
1164.53
894.809
384.229
403.908
828.514
1149.89
967.739
922.325
967.729
1149.88
828.511
403.908
418.812
798.36
1127.32
979.21
937.346
979.201
1127.31
798.356
418.813
424.22
780.385
1106.3
985.199
949.394
985.191
1106.29
780.381
424.22
425.432
766.794
1087.54
989.012
960.006
989.004
1087.53
766.791
425.432
425.491
755.552
1070.43
991.866
969.722
991.859
1070.42
755.548
425.49
425.696
746.359
1054.71
994.438
978.978
994.43
1054.7
746.355
425.695
426.578
739.64
1040.99
997.631
988.638
997.624
1040.98
739.636
426.578
428.854
736.431
1029.51
1002.81
1000.2
1002.8
1029.5
736.427
428.853
431.843
737.66
1028.85
1014.93
1017.57
1014.93
1028.84
737.657
431.842
442.666
744.567
1026.68
1033.74
1040.48
1033.73
1026.68
744.563
442.665
440.121
715.744
1218.02
1106.83
1083.01
1106.82
1218.01
715.741
440.121
528.846
849.284
1363.42
740.136
816.119
740.135
1363.41
849.281
528.846
626.219
918.308
918.306
626.219
526.268
945.951
687.436
530.465
498.961
530.468
687.439
945.95
526.268
176.595
768.911
764.908
727.652
647.99
727.653
764.909
768.911
176.595
691.342
703.269
652.487
703.268
691.34
683.002
680.503
638.183
680.501
682.998
684.63
670.386
629.229
670.383
684.626
688.029
667.186
625.657
667.184
688.024
691.772
666.865
624.844
666.863
691.768
695.657
667.689
625.241
667.687
695.653
699.617
668.978
626.143
668.977
699.613
703.644
670.493
627.279
670.491
703.64
707.682
672.117
628.517
672.115
707.678
711.914
673.937
629.951
673.936
711.911
715.445
675.432
631.075
675.431
715.442
722.084
678.636
633.728
678.635
722.081
247.663
260.912
306.964
343.649
392.261
343.648
306.963
260.912
247.663
272.638
302.562
347.622
365.01
402.092
365.009
347.621
302.561
272.638
267.441
303.989
356.528
379.211
414.368
379.209
356.526
303.988
267.44
268.439
300.057
355.763
391.44
430.267
391.438
355.761
300.056
268.438
271.6
298.891
357.209
406.776
450.487
406.774
357.206
298.89
271.599
275.849
301.778
364.501
426.957
474.576
426.954
364.497
301.776
275.847
282.087
309.361
378.402
451.805
501.539
451.802
378.398
309.358
282.085
291.939
322.508
398.72
480.352
530.293
480.347
398.715
322.505
291.937
307.189
342.023
424.785
511.388
559.859
511.383
424.779
342.019
307.186
329.275
368.274
455.596
543.721
589.409
543.716
455.59
368.27
329.271
359.14
401.055
489.908
576.253
618.239
576.247
489.9
401.049
359.136
396.261
439.315
526.206
607.92
645.669
607.913
526.198
439.309
396.256
443.591
482.372
562.724
637.566
671.048
637.559
562.715
482.365
443.586
487.512
524.12
596.191
663.562
693.374
663.554
596.181
524.112
487.504
588.951
569.333
623.176
684.654
714.068
684.646
623.166
569.325
588.943
531.378
551.503
629.422
699.272
729.56
699.265
629.412
551.494
531.37
341.979
487.305
634.982
724.186
783.91
724.178
634.972
487.299
341.975
245.218
443.959
644.663
753.474
883.946
753.465
644.654
443.955
245.217
206.343
417.013
645.806
769.825
941.908
769.817
645.797
417.01
206.343
206.452
414.398
651.523
781.083
967.727
781.075
651.515
414.394
206.452
217.178
422.888
662.182
791.863
979.2
791.855
662.174
422.884
217.178
229.723
434.824
675.027
802.913
985.189
802.906
675.019
434.821
229.723
242.235
447.409
688.198
813.827
989.003
813.821
688.19
447.405
242.234
254.606
459.979
700.907
824.597
991.858
824.59
700.899
459.976
254.605
267.042
472.695
713.244
835.47
994.43
835.463
713.237
472.692
267.042
279.755
486.214
726.368
847.508
997.624
847.501
726.361
486.21
279.754
293.285
501.633
741.234
862.553
1002.8
862.548
741.227
501.628
293.284
306.968
520.605
768.787
888.152
1014.93
888.147
768.781
520.601
306.967
326.305
544.302
795.682
925.385
1033.73
925.381
795.677
544.297
326.304
333.086
549.01
1041.77
1065.49
1106.82
1065.49
1041.76
549.007
333.085
408.342
691.498
1185.54
677.9
740.137
677.898
1185.53
691.496
408.341
500.488
765.52
765.519
500.487
447.068
815.315
555.013
440.765
530.472
440.766
555.014
815.314
447.067
205.221
828.166
761.494
709.503
727.658
709.502
761.493
828.163
205.22
700.977
683.879
703.273
683.877
700.973
696.079
664.492
680.506
664.488
696.074
699.897
658.445
670.388
658.441
699.892
704.446
658.454
667.189
658.45
704.441
708.615
660.589
666.867
660.586
708.61
712.541
663.451
667.692
663.448
712.536
716.363
666.562
668.981
666.558
716.359
720.164
669.778
670.496
669.775
720.16
723.935
673.013
672.12
673.01
723.931
727.854
676.411
673.941
676.408
727.851
731.126
679.23
675.436
679.228
731.122
737.213
684.622
678.639
684.62
737.21
303.628
316.062
347.699
306.962
293.744
306.963
347.698
316.062
303.628
340.715
411.498
440.407
347.62
307.104
347.621
440.406
411.498
340.716
294.637
355.759
418.233
356.525
318.455
356.525
418.232
355.759
294.637
289.473
322.524
387.667
355.76
331.041
355.76
387.666
322.523
289.473
288.743
308.29
368.438
357.206
347.502
357.206
368.437
308.289
288.742
288.498
303.267
359.61
364.497
368.647
364.497
359.609
303.266
288.497
288.958
303.223
359.011
378.398
394.303
378.397
359.009
303.222
288.957
291.286
307.521
365.814
398.715
423.862
398.714
365.811
307.519
291.285
297.362
317.152
379.898
424.781
456.506
424.779
379.896
317.15
297.361
309.407
333.492
401.127
455.591
491.301
455.589
401.123
333.489
309.405
329.325
357.487
428.935
489.903
527.287
489.9
428.931
357.484
329.323
358.015
389.113
462.118
526.201
563.308
526.197
462.113
389.109
358.013
395.243
427.131
498.625
562.718
598.719
562.714
498.619
427.127
395.24
439.044
468.446
534.946
596.186
629.634
596.181
534.94
468.442
439.04
484.024
506.952
565.784
623.171
664.215
623.166
565.777
506.946
484.019
520.742
533.436
584.483
629.416
641.544
629.412
584.476
533.43
520.737
535.253
537.769
598.888
634.977
831.992
634.972
598.882
537.763
535.247
494.191
519.675
606.546
644.659
1118.45
644.654
606.54
519.669
494.186
448.932
504.123
607.214
645.802
1164.53
645.796
607.208
504.117
448.927
430.525
501.698
610.18
651.52
1149.88
651.514
610.175
501.693
430.52
429.284
508.11
616.693
662.18
1127.31
662.173
616.688
508.105
429.279
435.611
518.324
625.097
675.025
1106.29
675.018
625.092
518.319
435.606
444.582
529.48
633.901
688.196
1087.54
688.188
633.895
529.474
444.577
454.085
540.308
642.397
700.905
1070.42
700.897
642.39
540.302
454.08
463.237
550.379
650.397
713.242
1054.7
713.235
650.391
550.374
463.233
471.522
559.498
658.387
726.366
1040.98
726.359
658.382
559.492
471.518
478.768
568.105
666.457
741.231
1029.5
741.225
666.453
568.1
478.764
483.549
573.56
681.906
768.783
1028.84
768.779
681.901
573.555
483.545
490.508
587.66
698.954
795.679
1026.68
795.675
698.949
587.656
490.505
485.981
530.026
865.42
1041.76
1218.02
1041.76
865.415
530.022
485.978
532.391
775.735
1786.07
1185.54
1363.42
1185.54
1786.07
775.732
532.388
628.442
861.722
861.72
628.439
605.047
878.408
578.4
555.015
687.442
555.014
578.397
878.406
605.045
532.562
1081.44
861.347
761.497
764.914
761.495
861.345
1081.44
532.56
780.778
700.978
691.344
700.975
780.776
786.217
696.078
683.003
696.076
786.216
796.038
699.896
684.631
699.894
796.037
801.61
704.445
688.029
704.443
801.609
804.366
708.614
691.772
708.612
804.365
805.906
712.54
695.658
712.538
805.904
807.004
716.362
699.618
716.361
807.003
807.98
720.163
703.644
720.162
807.979
808.932
723.934
707.683
723.933
808.931
809.967
727.854
711.915
727.853
809.966
810.828
731.125
715.447
731.124
810.827
812.631
737.213
722.086
737.212
812.63
272.085
256.991
316.062
260.912
271.987
260.912
316.062
256.991
272.086
319.01
349.252
411.498
302.56
288.224
302.561
411.498
349.252
319.01
262.297
289.072
355.759
303.988
293.471
303.988
355.759
289.071
262.296
255.005
263.837
322.523
300.055
297.797
300.055
322.523
263.837
255.004
258.393
258.712
308.289
298.889
305.316
298.889
308.289
258.711
258.392
262.637
260.387
303.267
301.775
317.206
301.775
303.266
260.386
262.636
266.222
264.176
303.223
309.358
333.896
309.358
303.222
264.175
266.221
269.989
269.601
307.52
322.504
355.584
322.504
307.519
269.6
269.988
275.759
278.029
317.152
342.019
382.264
342.018
317.15
278.027
275.757
285.906
291.537
333.492
368.27
413.627
368.269
333.489
291.535
285.904
302.775
312.047
357.487
401.051
449.28
401.049
357.484
312.045
302.773
327.924
340.609
389.112
439.311
487.769
439.309
389.109
340.606
327.922
361.436
376.785
427.13
482.367
532.238
482.365
427.127
376.782
361.433
401.826
418.336
468.445
524.115
566.172
524.112
468.442
418.332
401.823
445.784
461.111
506.95
569.328
669.043
569.325
506.947
461.107
445.78
489.886
500.62
533.434
551.497
557.771
551.495
533.431
500.616
489.881
560.577
545.015
537.767
487.301
849.27
487.299
537.764
545.01
560.572
623.831
581.602
519.673
443.957
1034.04
443.955
519.67
581.597
623.824
653.157
601.647
504.12
417.011
894.809
417.01
504.118
601.642
653.15
669.717
616.113
501.696
414.396
828.512
414.394
501.693
616.108
669.71
683.699
630.018
508.108
422.886
798.358
422.884
508.106
630.013
683.692
697.191
643.845
518.322
434.823
780.384
434.82
518.32
643.84
697.185
709.876
656.895
529.478
447.408
766.794
447.404
529.475
656.89
709.87
721.14
668.525
540.306
459.978
755.551
459.974
540.304
668.52
721.134
730.492
678.305
550.378
472.694
746.358
472.69
550.375
678.3
730.487
737.476
685.77
559.497
486.212
739.639
486.209
559.494
685.765
737.471
741.639
690.554
568.105
501.631
736.43
501.628
568.102
690.55
741.634
742.251
690.115
573.559
520.603
737.661
520.6
573.557
690.111
742.247
740.199
686.949
587.66
544.3
744.568
544.297
587.658
686.945
740.195
736.26
652.89
530.026
549.009
715.746
549.006
530.024
652.887
736.256
754.459
654.576
775.736
691.496
849.286
691.496
775.734
654.574
754.456
802.708
684.521
861.723
765.519
918.31
765.519
861.722
684.519
802.704
855.811
785.118
878.41
815.315
945.955
815.315
878.408
785.115
855.808
987.695
1118.07
1081.44
828.169
768.916
828.167
1081.44
1118.07
987.695
278.133
272.085
303.628
247.663
314.019
247.663
303.628
272.086
278.134
314.128
319.01
340.716
272.637
337.309
272.638
340.716
319.01
314.127
255.936
262.297
294.637
267.44
324.008
267.44
294.637
262.296
255.936
258.575
255.005
289.473
268.438
314.243
268.438
289.473
255.004
258.574
267.569
258.393
288.742
271.598
312.125
271.599
288.742
258.392
267.568
273.539
262.637
288.498
275.847
316.275
275.847
288.497
262.636
273.538
276.823
266.222
288.958
282.085
325.834
282.085
288.957
266.221
276.821
279.266
269.989
291.286
291.937
340.697
291.937
291.285
269.988
279.264
283.053
275.758
297.362
307.187
361.102
307.186
297.361
275.757
283.051
290.688
285.906
309.407
329.272
387.159
329.271
309.405
285.904
290.686
304.663
302.775
329.325
359.137
419.376
359.136
329.323
302.773
304.66
326.725
327.924
358.015
396.258
455.345
396.257
358.013
327.922
326.722
357.246
361.436
395.243
443.588
510.022
443.586
395.241
361.433
357.243
394.916
401.826
439.043
487.507
526.169
487.504
439.04
401.823
394.912
437.921
445.784
484.022
588.946
944.231
588.943
484.019
445.78
437.917
484.298
489.885
520.74
531.373
556.838
531.37
520.737
489.881
484.293
545.474
560.577
535.251
341.977
485.195
341.976
535.248
560.572
545.469
614.154
623.83
494.188
245.218
468.845
245.218
494.186
623.825
614.148
666.778
653.155
448.928
206.343
384.229
206.343
448.928
653.151
666.772
704.559
669.716
430.521
206.452
403.908
206.452
430.521
669.711
704.553
733.711
683.697
429.28
217.178
418.813
217.178
429.28
683.693
733.704
758.036
697.19
435.607
229.724
424.221
229.723
435.607
697.186
758.029
779.052
709.874
444.579
242.235
425.432
242.234
444.579
709.871
779.044
797.179
721.139
454.082
254.606
425.49
254.605
454.082
721.135
797.173
812.432
730.491
463.235
267.042
425.696
267.041
463.235
730.488
812.426
824.685
737.475
471.521
279.754
426.579
279.753
471.521
737.472
824.678
833.821
741.639
478.767
293.285
428.855
293.284
478.767
741.636
833.816
839.967
742.251
483.549
306.967
431.843
306.966
483.549
742.248
839.962
844.581
740.199
490.508
326.305
442.667
326.304
490.508
740.197
844.576
851.442
736.26
485.982
333.085
440.123
333.085
485.982
736.258
851.438
874.344
754.46
532.392
408.341
528.849
408.34
532.391
754.459
874.341
912.225
802.708
628.444
500.488
626.223
500.487
628.443
802.707
912.221
947.188
855.811
605.049
447.068
526.272
447.068
605.048
855.81
947.185
1015.72
987.699
532.565
205.222
176.596
205.222
532.564
987.699
1015.72
)
;

boundaryField
{
    injectionXMinus
    {
        type            uniformFixedValue;
        uniformValue    uniform 400;
        value           uniform 400;
    }
    injectionXPlus
    {
        type            uniformFixedValue;
        uniformValue    uniform 400;
        value           uniform 400;
    }
    injectionYMinus
    {
        type            uniformFixedValue;
        uniformValue    uniform 400;
        value           uniform 400;
    }
    injectionYPlus
    {
        type            uniformFixedValue;
        uniformValue    uniform 400;
        value           uniform 400;
    }
    inletXMinus
    {
        type            uniformFixedValue;
        uniformValue    uniform 293.15;
        value           uniform 293.15;
    }
    inletXPlus
    {
        type            uniformFixedValue;
        uniformValue    uniform 293.15;
        value           uniform 293.15;
    }
    inletYMinus
    {
        type            uniformFixedValue;
        uniformValue    uniform 293.15;
        value           uniform 293.15;
    }
    inletYPlus
    {
        type            uniformFixedValue;
        uniformValue    uniform 293.15;
        value           uniform 293.15;
    }
    outlet
    {
        type            zeroGradient;
    }
    valve
    {
        type            zeroGradient;
    }
    walls
    {
        type            zeroGradient;
    }
}


// ************************************************************************* //
