/*--------------------------------*- C++ -*----------------------------------*\
  =========                 |
  \\      /  F ield         | OpenFOAM: The Open Source CFD Toolbox
   \\    /   O peration     | Website:  https://openfoam.org
    \\  /    A nd           | Version:  6
     \\/     M anipulation  |
\*---------------------------------------------------------------------------*/
FoamFile
{
    version     2.0;
    format      ascii;
    class       volScalarField;
    location    "0.1";
    object      T;
}
// * * * * * * * * * * * * * * * * * * * * * * * * * * * * * * * * * * * * * //

dimensions      [0 0 0 1 0 0 0];

internalField   nonuniform List<scalar> 
3029
(
278.729
277.396
307.012
280.23
521.603
280.23
307.012
277.396
278.729
315.428
325.532
344.041
308.695
560.983
308.695
344.041
325.532
315.428
264.27
278.047
311.114
330.397
564.755
330.397
311.114
278.047
264.27
290.254
299.324
341.807
379.578
581.823
379.577
341.806
299.323
290.254
345.784
352.341
397.226
443.372
611.273
443.371
397.225
352.34
345.783
415.532
421.261
463.786
510.806
646.164
510.804
463.784
421.259
415.531
488.753
493.878
531.239
574.514
681.247
574.512
531.236
493.876
488.751
557.521
562.01
593.201
630.746
713.5
630.744
593.197
562.007
557.519
617.821
621.715
646.919
678.335
741.64
678.334
646.915
621.711
617.818
668.529
671.875
691.847
717.528
765.431
717.526
691.842
671.87
668.526
709.994
712.861
728.519
749.234
785.23
749.231
728.515
712.855
709.99
743.201
745.663
757.921
774.608
801.517
774.606
757.916
745.656
743.197
769.327
771.425
781.142
795.195
817.364
795.193
781.137
771.42
769.323
789.57
791.171
798.838
811.161
826.165
811.159
798.832
791.164
789.565
805.409
806.193
811.976
827.653
899.13
827.65
811.97
806.187
805.404
818.939
816.758
812.753
811.28
864.114
811.277
812.748
816.752
818.934
835.651
836.604
835.505
686.67
636.31
686.668
835.501
836.598
835.645
852.665
859.975
845.806
560.793
528.156
560.792
845.801
859.969
852.659
862.315
869.21
831.982
519.724
478.734
519.723
831.979
869.204
862.309
866.044
870.506
823.543
537.128
516.769
537.128
823.54
870.501
866.038
866.716
868.98
821.669
575.291
565.486
575.29
821.666
868.975
866.711
866.088
866.791
823.28
618.016
612.997
618.016
823.278
866.786
866.082
864.947
864.644
826.32
658.695
655.894
658.694
826.318
864.639
864.942
863.567
862.671
829.698
694.789
693.11
694.788
829.697
862.666
863.563
861.969
860.765
832.796
725.553
724.561
725.553
832.795
860.762
861.966
860.051
858.7
835.163
750.914
750.489
750.914
835.162
858.698
860.047
857.71
856.196
836.489
770.992
771.108
770.992
836.488
856.194
857.707
855.1
852.79
835.382
784.531
784.957
784.531
835.381
852.789
855.098
853.615
849.551
836.604
795.744
796.316
795.744
836.605
849.55
853.612
856.601
846.094
821.367
784.14
782.361
784.14
821.368
846.094
856.598
876.694
867.128
877.382
852.516
852.71
852.516
877.383
867.129
876.692
908.375
907.039
987.732
986.47
988.806
986.47
987.734
907.041
908.374
929.193
922.364
884.025
886.676
893.017
886.677
884.027
922.364
929.191
953.418
961.008
635.956
462.868
441.368
462.869
635.957
961.011
953.421
277.396
279.019
355.442
352.236
508.47
352.235
355.442
279.019
277.396
325.532
378.439
461.452
404.864
535.982
404.864
461.451
378.439
325.532
278.047
328.246
422.573
434.037
558.977
434.036
422.572
328.246
278.046
299.324
332.33
424.247
472.84
588.317
472.839
424.245
332.328
299.323
352.341
374.726
458.872
521.325
622.621
521.324
458.87
374.724
352.34
421.261
437.618
511.006
573.631
658.375
573.63
511.003
437.616
421.259
493.878
506.205
567.765
624.046
692.504
624.045
567.761
506.202
493.875
562.01
571.52
621.616
669.277
723.221
669.276
621.612
571.516
562.006
621.714
629.162
669.013
708.01
749.782
708.008
669.009
629.157
621.71
671.874
677.722
708.908
740.159
772.111
740.157
708.903
677.717
671.869
712.861
717.453
741.569
766.288
790.534
766.285
741.564
717.447
712.854
745.662
749.253
767.753
787.201
805.548
787.199
767.748
749.247
745.655
771.425
774.158
788.272
803.76
818.321
803.757
788.266
774.151
771.419
791.17
793.011
803.57
816.007
826.885
816.005
803.564
793.003
791.163
806.193
806.471
813.424
824.072
848.691
824.069
813.418
806.464
806.185
816.757
815.086
815.74
812.059
794.187
812.056
815.735
815.079
816.75
836.604
825.197
815.211
775.992
952.013
775.989
815.206
825.19
836.596
859.975
834.941
810.911
738.848
1066.05
738.844
810.907
834.934
859.967
869.21
838.806
805.42
721.705
1012.81
721.701
805.416
838.8
869.203
870.506
840.46
805.175
726.698
975.04
726.694
805.172
840.454
870.5
868.98
842.013
809.126
741.678
947.994
741.675
809.123
842.007
868.974
866.79
843.811
814.974
759.287
926.586
759.284
814.971
843.806
866.785
864.644
845.653
821.194
776.286
909.39
776.283
821.191
845.65
864.638
862.671
847.302
827.009
791.459
895.832
791.455
827.007
847.298
862.666
860.765
848.552
832.061
804.506
885.406
804.504
832.058
848.548
860.761
858.701
849.168
836.157
815.455
877.534
815.453
836.154
849.164
858.697
856.197
848.854
839.156
824.283
871.424
824.281
839.155
848.852
856.194
852.791
846.119
839.502
829.644
864.491
829.643
839.501
846.117
852.789
849.552
841.909
840.94
827.016
851.508
827.016
840.939
841.909
849.551
846.095
810.898
772.337
773.132
778.264
773.132
772.337
810.898
846.095
867.129
807.038
925.028
794.36
821.097
794.361
925.03
807.04
867.129
907.04
831.925
980.862
822.429
846.049
822.429
980.864
831.927
907.041
922.364
907.415
1066.6
1042.2
1047.75
1042.2
1066.61
907.417
922.366
961.009
1099.61
1194.56
1220.11
1200.36
1220.11
1194.56
1099.62
961.013
307.012
355.442
459.657
519.283
607.992
519.281
459.655
355.442
307.012
344.041
461.452
573.057
575.075
626.74
575.074
573.055
461.451
344.041
311.114
422.573
571.145
603.436
644.775
603.435
571.143
422.572
311.113
341.807
424.247
570.166
626.566
665.507
626.565
570.163
424.245
341.806
397.226
458.872
588.102
652.533
688.835
652.532
588.098
458.869
397.224
463.786
511.005
619.555
681.217
713.179
681.216
619.551
511.002
463.783
531.239
567.764
656.089
709.99
736.763
709.989
656.085
567.76
531.235
593.2
621.615
691.935
736.717
758.376
736.715
691.93
621.61
593.196
646.919
669.012
724.087
760.229
777.373
760.227
724.082
669.007
646.914
691.846
708.908
751.489
780.155
793.548
780.153
751.483
708.901
691.84
728.518
741.568
774.128
796.606
806.99
796.603
774.122
741.562
728.512
757.919
767.753
792.386
809.888
817.934
809.885
792.38
767.746
757.913
781.141
788.271
806.671
820.308
826.748
820.306
806.666
788.264
781.134
798.836
803.569
817.095
827.85
833.091
827.848
817.089
803.562
798.829
811.974
813.422
823.325
832.324
840.479
832.321
823.319
813.415
811.966
812.752
815.739
824.469
830.781
831.196
830.779
824.464
815.733
812.745
835.505
815.21
825.447
831.392
886.534
831.39
825.443
815.204
835.497
845.805
810.911
826.09
833.98
981.417
833.977
826.085
810.904
845.798
831.982
805.42
824.414
832.541
1000.23
832.537
824.41
805.414
831.975
823.543
805.175
824.28
832.733
989.834
832.73
824.277
805.17
823.537
821.669
809.126
826.35
834.986
970.957
834.983
826.347
809.122
821.664
823.28
814.975
829.765
838.255
951.183
838.253
829.761
814.97
823.275
826.321
821.194
833.665
841.76
933.261
841.758
833.661
821.189
826.316
829.699
827.01
837.55
845.171
918.119
845.169
837.547
827.006
829.695
832.797
832.061
841.231
848.5
905.93
848.498
841.228
832.058
832.794
835.164
836.157
844.891
852.13
896.822
852.127
844.889
836.155
835.162
836.49
839.157
848.547
856.662
891.012
856.661
848.546
839.156
836.489
835.383
839.503
858.954
867.723
892.996
867.723
858.952
839.501
835.382
836.606
840.941
862.828
875.973
894.908
875.973
862.826
840.94
836.606
821.369
772.339
1041.4
1052.58
1044.51
1052.58
1041.4
772.339
821.369
877.385
925.03
1700.07
1072.41
1159.78
1072.41
1700.07
925.032
877.386
987.734
980.863
980.867
987.736
884.027
1066.61
681.509
644.881
687.333
644.882
681.511
1066.61
884.029
635.957
1194.56
948.7
970.338
977.711
970.339
948.703
1194.57
635.96
846.485
894.589
918.106
894.59
846.488
844.26
879.847
909.399
879.849
844.263
850.037
876.072
905.807
876.073
850.04
852.484
873.833
902.497
873.834
852.486
852.34
871.374
898.967
871.375
852.342
851.455
869.111
895.706
869.112
851.457
850.462
867.105
892.71
867.106
850.464
849.546
865.301
889.891
865.302
849.548
848.784
863.694
887.246
863.695
848.786
848.271
862.323
884.762
862.324
848.273
847.775
861.123
882.638
861.124
847.776
847.629
859.679
879.384
859.68
847.63
280.229
352.235
519.282
665.374
737.082
665.369
519.279
352.235
280.229
308.695
404.864
575.074
692.058
743.529
692.054
575.071
404.863
308.695
330.398
434.036
603.435
708.945
747.514
708.942
603.431
434.035
330.397
379.578
472.839
626.564
721.844
752.582
721.841
626.56
472.837
379.577
443.372
521.324
652.531
735.222
760.291
735.22
652.527
521.321
443.37
510.805
573.629
681.215
750.117
770.393
750.115
681.21
573.626
510.803
574.513
624.045
709.988
765.652
781.778
765.65
709.983
624.04
574.51
630.744
669.275
736.715
780.716
793.345
780.714
736.709
669.271
630.74
678.334
708.008
760.227
794.502
804.286
794.5
760.222
708.003
678.33
717.526
740.157
780.153
806.583
814.112
806.581
780.148
740.151
717.522
749.231
766.286
796.604
816.822
822.595
816.82
796.598
766.28
749.226
774.605
787.199
809.886
825.243
829.669
825.241
809.88
787.193
774.599
795.193
803.758
820.307
831.91
835.367
831.909
820.301
803.752
795.186
811.159
816.005
827.849
836.832
839.75
836.83
827.844
815.999
811.153
827.651
824.071
832.323
840.149
843.492
840.147
832.318
824.064
827.645
811.278
812.057
830.78
842.158
847.125
842.156
830.775
812.051
811.272
686.669
775.99
831.391
848.861
861.552
848.859
831.385
775.984
686.664
560.792
738.846
833.979
857.461
882.82
857.459
833.973
738.84
560.789
519.723
721.703
832.54
860.435
892.043
860.432
832.535
721.698
519.721
537.127
726.697
832.733
860.525
892.83
860.523
832.728
726.692
537.126
575.291
741.678
834.986
859.998
889.913
859.996
834.982
741.673
575.289
618.016
759.287
838.255
859.615
885.866
859.613
838.251
759.283
618.014
658.696
776.286
841.76
859.552
881.854
859.551
841.757
776.281
658.694
694.79
791.458
845.171
859.887
878.46
859.886
845.168
791.455
694.787
725.555
804.506
848.5
860.818
876.102
860.817
848.498
804.503
725.553
750.916
815.456
852.13
862.875
875.393
862.874
852.128
815.453
750.915
770.994
824.284
856.663
867.32
877.586
867.32
856.661
824.282
770.993
784.533
829.646
867.725
877.443
885.343
877.442
867.724
829.644
784.532
795.747
827.019
875.975
896.818
901.872
896.818
875.975
827.018
795.747
784.143
773.135
1052.58
971.962
949.859
971.961
1052.58
773.136
784.143
852.519
794.363
1072.41
619.329
663.319
619.33
1072.41
794.364
852.52
986.474
822.431
822.433
986.476
886.68
1042.21
644.883
492.176
523.455
492.179
644.887
1042.21
886.682
462.87
1220.12
970.34
835.28
796.262
835.286
970.344
1220.12
462.871
894.591
815.43
793.369
815.435
894.592
879.849
793.204
776.409
793.208
879.85
876.074
784.415
768.723
784.417
876.074
873.835
782.561
767.579
782.564
873.835
871.376
782.961
768.956
782.963
871.376
869.113
784.5
771.571
784.501
869.113
867.107
786.676
774.806
786.678
867.107
865.302
789.141
778.269
789.143
865.302
863.695
791.754
781.801
791.756
863.695
862.324
794.579
785.443
794.58
862.325
861.124
796.957
788.546
796.959
861.124
859.68
801.528
794.057
801.529
859.68
521.601
508.468
607.99
737.08
797.911
737.076
607.987
508.467
521.6
560.981
535.98
626.737
743.527
796.967
743.522
626.734
535.979
560.98
564.754
558.975
644.773
747.512
792.518
747.506
644.767
558.973
564.751
581.821
588.314
665.504
752.58
789.168
752.574
665.497
588.31
581.818
611.27
622.618
688.832
760.289
789.245
760.283
688.825
622.613
611.267
646.162
658.373
713.176
770.391
792.846
770.384
713.169
658.367
646.158
681.244
692.502
736.76
781.775
798.943
781.768
736.752
692.496
681.24
713.497
723.218
758.373
793.343
806.34
793.335
758.365
723.213
713.493
741.637
749.779
777.37
804.285
814.059
804.277
777.362
749.773
741.633
765.428
772.107
793.545
814.111
821.431
814.104
793.537
772.101
765.423
785.227
790.53
806.987
822.593
828.058
822.587
806.979
790.524
785.222
801.513
805.544
817.93
829.668
833.741
829.662
817.923
805.539
801.509
817.36
818.318
826.745
835.366
838.418
835.361
826.738
818.312
817.356
826.161
826.882
833.089
839.749
842.192
839.744
833.082
826.876
826.157
899.127
848.689
840.477
843.491
845.724
843.486
840.471
848.684
899.122
864.111
794.186
831.194
847.124
850.786
847.12
831.188
794.181
864.106
636.31
952.01
886.532
861.552
863.641
861.547
886.526
952.006
636.308
528.156
1066.04
981.416
882.819
878.468
882.815
981.409
1066.04
528.156
478.734
1012.81
1000.23
892.043
885.083
892.039
1000.22
1012.81
478.734
516.769
975.039
989.833
892.83
885.619
892.827
989.827
975.035
516.769
565.486
947.994
970.956
889.913
883.436
889.91
970.951
947.99
565.486
612.997
926.588
951.183
885.865
880.454
885.862
951.179
926.583
612.996
655.895
909.391
933.262
881.853
877.552
881.851
933.258
909.388
655.894
693.112
895.834
918.119
878.46
875.194
878.458
918.116
895.831
693.11
724.563
885.408
905.931
876.103
873.811
876.101
905.928
885.406
724.562
750.491
877.537
896.824
875.394
874.082
875.392
896.822
877.535
750.49
771.111
871.428
891.015
877.587
877.308
877.586
891.012
871.427
771.11
784.961
864.495
892.999
885.345
885.666
885.344
892.997
864.494
784.96
796.32
851.512
894.911
901.873
901.205
901.873
894.91
851.511
796.32
782.365
778.268
1044.52
949.86
923.332
949.86
1044.52
778.268
782.366
852.716
821.101
1159.78
663.319
722.977
663.32
1159.78
821.102
852.717
988.812
846.052
846.053
988.814
893.022
1047.76
687.336
523.454
532.21
523.456
687.338
1047.76
893.024
441.37
1200.37
977.717
796.264
697.719
796.266
977.718
1200.37
441.371
918.112
793.372
714.786
793.373
918.112
909.404
776.412
708.933
776.413
909.404
905.813
768.725
707.485
768.727
905.813
902.502
767.581
711.373
767.583
902.502
898.972
768.959
717.497
768.96
898.972
895.71
771.573
724.535
771.575
895.71
892.715
774.808
731.84
774.81
892.714
889.895
778.271
739.023
778.273
889.895
887.25
781.803
745.944
781.804
887.25
884.766
785.445
752.641
785.447
884.766
882.642
788.548
758.408
788.549
882.642
879.387
794.058
767.461
794.06
879.387
280.229
352.234
519.279
665.367
737.075
665.366
519.278
352.234
280.229
308.695
404.863
575.071
692.052
743.521
692.05
575.07
404.862
308.694
330.397
434.035
603.432
708.94
747.506
708.938
603.431
434.034
330.396
379.576
472.837
626.561
721.838
752.573
721.836
626.559
472.836
379.575
443.369
521.322
652.528
735.217
760.282
735.214
652.529
521.322
443.368
510.802
573.627
681.212
750.112
770.384
750.108
681.213
573.63
510.8
574.51
624.041
709.984
765.648
781.767
765.642
709.985
624.045
574.507
630.741
669.272
736.711
780.712
793.334
780.705
736.711
669.275
630.738
678.331
708.005
760.224
794.498
804.276
794.49
760.222
708.008
678.327
717.523
740.153
780.15
806.578
814.103
806.57
780.148
740.156
717.519
749.227
766.282
796.6
816.817
822.586
816.809
796.597
766.283
749.224
774.601
787.195
809.882
825.238
829.661
825.23
809.879
787.195
774.598
795.188
803.754
820.303
831.907
835.36
831.899
820.3
803.754
795.185
811.155
816.002
827.845
836.829
839.744
836.822
827.842
816.001
811.152
827.648
824.067
832.319
840.147
843.486
840.14
832.316
824.066
827.643
811.275
812.054
830.777
842.155
847.119
842.149
830.773
812.052
811.271
686.667
775.987
831.387
848.859
861.547
848.853
831.384
775.986
686.664
560.791
738.843
833.975
857.459
882.815
857.454
833.972
738.841
560.79
519.722
721.701
832.537
860.432
892.04
860.428
832.534
721.699
519.721
537.127
726.695
832.731
860.523
892.827
860.52
832.727
726.692
537.126
575.29
741.676
834.984
859.997
889.91
859.993
834.981
741.673
575.289
618.016
759.285
838.253
859.614
885.863
859.611
838.251
759.284
618.014
658.695
776.284
841.759
859.552
881.851
859.548
841.757
776.283
658.693
694.789
791.458
845.171
859.888
878.458
859.885
845.168
791.456
694.788
725.554
804.507
848.501
860.819
876.102
860.817
848.499
804.505
725.553
750.916
815.456
852.131
862.876
875.393
862.874
852.13
815.455
750.915
770.995
824.286
856.665
867.322
877.587
867.32
856.663
824.284
770.994
784.534
829.648
867.727
877.445
885.345
877.444
867.725
829.647
784.533
795.748
827.021
875.978
896.82
901.874
896.82
875.977
827.021
795.748
784.145
773.138
1052.58
971.964
949.861
971.964
1052.58
773.139
784.145
852.522
794.366
1072.41
619.331
663.321
619.331
1072.41
794.367
852.523
986.477
822.433
822.435
986.479
886.684
1042.21
644.888
492.183
523.461
492.184
644.89
1042.21
886.685
462.872
1220.12
970.347
835.292
796.271
835.293
970.348
1220.12
462.872
894.595
815.441
793.376
815.442
894.595
879.854
793.213
776.415
793.214
879.853
876.078
784.422
768.729
784.424
876.077
873.839
782.569
767.584
782.57
873.838
871.38
782.968
768.962
782.97
871.379
869.117
784.506
771.576
784.508
869.115
867.11
786.682
774.811
786.684
867.109
865.306
789.147
778.274
789.149
865.304
863.699
791.76
781.806
791.761
863.698
862.328
794.584
785.448
794.585
862.327
861.127
796.962
788.551
796.964
861.126
859.683
801.532
794.061
801.534
859.682
307.012
355.441
459.654
519.278
607.986
519.277
459.654
355.441
307.012
344.041
461.45
573.054
575.07
626.732
575.069
573.054
461.45
344.04
311.113
422.571
571.141
603.43
644.766
603.43
571.141
422.571
311.113
341.805
424.244
570.161
626.559
665.496
626.559
570.161
424.244
341.805
397.223
458.867
588.096
652.525
688.823
652.528
588.099
458.867
397.223
463.782
511
619.548
681.209
713.167
681.213
619.555
510.999
463.782
531.234
567.759
656.081
709.981
736.751
709.985
656.089
567.758
531.233
593.195
621.609
691.926
736.707
758.364
736.71
691.935
621.607
593.193
646.912
669.006
724.079
760.22
777.361
760.222
724.086
669.004
646.911
691.839
708.9
751.481
780.145
793.536
780.147
751.487
708.899
691.837
728.512
741.561
774.119
796.596
806.978
796.597
774.125
741.559
728.51
757.913
767.745
792.377
809.879
817.922
809.879
792.382
767.743
757.911
781.133
788.263
806.663
820.3
826.737
820.3
806.665
788.261
781.131
798.829
803.562
817.087
827.842
833.082
827.842
817.089
803.56
798.827
811.968
813.416
823.318
832.316
840.47
832.316
823.319
813.414
811.965
812.747
815.732
824.462
830.774
831.188
830.774
824.463
815.73
812.743
835.499
815.205
825.441
831.385
886.525
831.384
825.441
815.203
835.496
845.8
810.906
826.084
833.974
981.408
833.973
826.084
810.904
845.797
831.978
805.416
824.41
832.535
1000.22
832.534
824.409
805.414
831.975
823.539
805.171
824.277
832.728
989.827
832.727
824.276
805.17
823.536
821.666
809.123
826.348
834.982
970.952
834.981
826.346
809.122
821.664
823.278
814.972
829.762
838.252
951.18
838.251
829.761
814.97
823.275
826.319
821.192
833.663
841.758
933.258
841.757
833.662
821.19
826.317
829.698
827.009
837.549
845.17
918.117
845.168
837.548
827.007
829.696
832.797
832.061
841.23
848.5
905.93
848.499
841.229
832.059
832.795
835.165
836.158
844.892
852.131
896.822
852.13
844.892
836.156
835.163
836.491
839.159
848.549
856.665
891.014
856.664
848.549
839.158
836.49
835.385
839.505
858.957
867.727
892.999
867.726
858.957
839.505
835.384
836.61
840.945
862.831
875.978
894.912
875.978
862.831
840.944
836.609
821.373
772.343
1041.41
1052.58
1044.52
1052.58
1041.4
772.343
821.373
877.389
925.036
1700.07
1072.41
1159.78
1072.41
1700.08
925.037
877.39
987.741
980.87
980.873
987.742
884.034
1066.61
681.515
644.889
687.34
644.89
681.518
1066.62
884.035
635.962
1194.57
948.71
970.349
977.72
970.349
948.711
1194.57
635.962
846.494
894.596
918.114
894.596
846.492
844.269
879.854
909.406
879.854
844.267
850.045
876.079
905.815
876.078
850.043
852.492
873.839
902.504
873.839
852.49
852.348
871.38
898.973
871.38
852.345
851.462
869.117
895.712
869.116
851.46
850.469
867.11
892.716
867.11
850.466
849.553
865.306
889.897
865.305
849.55
848.79
863.699
887.251
863.698
848.788
848.277
862.328
884.768
862.327
848.275
847.781
861.127
882.643
861.127
847.779
847.634
859.683
879.389
859.682
847.632
277.396
279.018
355.442
352.234
508.465
352.234
355.441
279.018
277.396
325.532
378.438
461.451
404.862
535.977
404.862
461.45
378.438
325.531
278.046
328.245
422.572
434.034
558.972
434.034
422.571
328.245
278.046
299.323
332.328
424.244
472.835
588.309
472.835
424.243
332.327
299.323
352.339
374.723
458.868
521.32
622.613
521.322
458.866
374.722
352.339
421.258
437.614
511
573.624
658.367
573.629
510.999
437.613
421.257
493.874
506.199
567.759
624.039
692.495
624.045
567.758
506.198
493.873
562.005
571.514
621.609
669.269
723.212
669.275
621.607
571.512
562.004
621.709
629.155
669.005
708.002
749.773
708.008
669.004
629.153
621.708
671.867
677.715
708.9
740.15
772.101
740.155
708.899
677.713
671.866
712.853
717.446
741.56
766.278
790.524
766.283
741.559
717.444
712.852
745.655
749.245
767.744
787.191
805.538
787.195
767.743
749.243
745.653
771.418
774.15
788.262
803.75
818.311
803.754
788.261
774.148
771.415
791.162
793.002
803.561
815.998
826.876
816.001
803.56
793
791.16
806.185
806.463
813.415
824.063
848.684
824.066
813.414
806.461
806.183
816.75
815.078
815.731
812.05
794.181
812.052
815.731
815.076
816.748
836.597
825.189
815.203
775.984
952.006
775.985
815.202
825.188
836.595
859.968
834.933
810.905
738.841
1066.04
738.841
810.903
834.932
859.966
869.204
838.799
805.414
721.699
1012.81
721.699
805.414
838.798
869.202
870.5
840.454
805.17
726.693
975.037
726.693
805.17
840.452
870.499
868.976
842.008
809.122
741.674
947.991
741.674
809.122
842.006
868.974
866.787
843.807
814.971
759.284
926.585
759.283
814.971
843.806
866.785
864.641
845.651
821.192
776.284
909.389
776.283
821.191
845.65
864.639
862.669
847.3
827.008
791.457
895.832
791.457
827.008
847.299
862.667
860.765
848.55
832.06
804.506
885.407
804.505
832.06
848.549
860.763
858.701
849.168
836.157
815.456
877.536
815.455
836.157
849.167
858.7
856.197
848.856
839.159
824.285
871.428
824.285
839.159
848.855
856.197
852.793
846.122
839.505
829.648
864.497
829.648
839.505
846.122
852.793
849.556
841.914
840.944
827.022
851.514
827.022
840.945
841.914
849.555
846.1
810.904
772.344
773.14
778.271
773.14
772.344
810.904
846.1
867.135
807.045
925.038
794.368
821.104
794.368
925.039
807.046
867.136
907.047
831.933
980.872
822.436
846.056
822.437
980.873
831.934
907.049
922.371
907.424
1066.62
1042.21
1047.76
1042.21
1066.62
907.426
922.373
961.017
1099.62
1194.57
1220.12
1200.37
1220.12
1194.57
1099.62
961.019
278.729
277.396
307.012
280.229
521.599
280.229
307.012
277.396
278.729
315.427
325.532
344.04
308.695
560.979
308.694
344.04
325.532
315.428
264.27
278.046
311.113
330.396
564.751
330.396
311.113
278.046
264.27
290.254
299.323
341.805
379.576
581.818
379.576
341.805
299.322
290.253
345.783
352.34
397.223
443.369
611.267
443.368
397.223
352.339
345.783
415.531
421.258
463.782
510.801
646.158
510.801
463.782
421.257
415.53
488.75
493.874
531.234
574.508
681.239
574.508
531.233
493.873
488.75
557.518
562.005
593.194
630.739
713.493
630.738
593.194
562.004
557.517
617.816
621.709
646.912
678.327
741.633
678.327
646.911
621.708
617.815
668.523
671.867
691.839
717.52
765.423
717.519
691.838
671.866
668.522
709.988
712.853
728.511
749.225
785.222
749.224
728.51
712.852
709.986
743.195
745.655
757.912
774.599
801.509
774.598
757.911
745.653
743.193
769.321
771.417
781.132
795.186
817.356
795.186
781.131
771.415
769.318
789.564
791.162
798.828
811.152
826.157
811.152
798.827
791.16
789.561
805.403
806.185
811.966
827.644
899.122
827.644
811.965
806.183
805.4
818.933
816.749
812.745
811.272
864.106
811.272
812.744
816.748
818.93
835.645
836.596
835.497
686.665
636.308
686.664
835.496
836.594
835.642
852.66
859.968
845.798
560.79
528.156
560.79
845.797
859.965
852.657
862.309
869.203
831.976
519.721
478.733
519.721
831.976
869.202
862.307
866.039
870.5
823.537
537.126
516.768
537.126
823.537
870.499
866.037
866.711
868.975
821.664
575.289
565.486
575.289
821.665
868.974
866.71
866.084
866.786
823.276
618.014
612.996
618.015
823.277
866.785
866.082
864.944
864.641
826.318
658.694
655.894
658.694
826.318
864.639
864.942
863.565
862.668
829.697
694.788
693.111
694.788
829.696
862.667
863.564
861.969
860.764
832.796
725.554
724.563
725.553
832.796
860.764
861.968
860.05
858.7
835.164
750.916
750.491
750.916
835.164
858.7
860.05
857.711
856.197
836.491
770.995
771.111
770.995
836.491
856.197
857.71
855.102
852.793
835.385
784.534
784.962
784.535
835.385
852.793
855.102
853.617
849.556
836.61
795.749
796.322
795.749
836.61
849.555
853.618
856.604
846.1
821.372
784.146
782.368
784.146
821.373
846.1
856.604
876.698
867.135
877.389
852.524
852.719
852.524
877.391
867.136
876.699
908.38
907.047
987.741
986.48
988.816
986.48
987.743
907.049
908.381
929.197
922.372
884.035
886.686
893.025
886.687
884.036
922.373
929.198
953.428
961.019
635.963
462.873
441.372
462.873
635.963
961.02
953.43
)
;

boundaryField
{
    injectionXMinus
    {
        type            fixedValue;
        value           uniform 400;
    }
    injectionXPlus
    {
        type            fixedValue;
        value           uniform 400;
    }
    injectionYMinus
    {
        type            fixedValue;
        value           uniform 400;
    }
    injectionYPlus
    {
        type            fixedValue;
        value           uniform 400;
    }
    inletXMinus
    {
        type            fixedValue;
        value           uniform 293.15;
    }
    inletXPlus
    {
        type            fixedValue;
        value           uniform 293.15;
    }
    inletYMinus
    {
        type            fixedValue;
        value           uniform 293.15;
    }
    inletYPlus
    {
        type            fixedValue;
        value           uniform 293.15;
    }
    outlet
    {
        type            zeroGradient;
    }
    valve
    {
        type            zeroGradient;
    }
    walls
    {
        type            zeroGradient;
    }
}


// ************************************************************************* //
