/*--------------------------------*- C++ -*----------------------------------*\
  =========                 |
  \\      /  F ield         | OpenFOAM: The Open Source CFD Toolbox
   \\    /   O peration     | Website:  https://openfoam.org
    \\  /    A nd           | Version:  6
     \\/     M anipulation  |
\*---------------------------------------------------------------------------*/
FoamFile
{
    version     2.0;
    format      ascii;
    class       volScalarField;
    location    "0.8";
    object      T;
}
// * * * * * * * * * * * * * * * * * * * * * * * * * * * * * * * * * * * * * //

dimensions      [0 0 0 1 0 0 0];

internalField   nonuniform List<scalar> 
3029
(
278.133
272.084
303.574
248.258
309.043
248.257
303.573
272.084
278.133
314.126
319.006
340.659
273.291
331.548
273.291
340.659
319.006
314.126
255.933
262.293
294.547
268.061
316.512
268.061
294.547
262.292
255.933
258.562
254.993
289.317
268.819
303.493
268.819
289.316
254.992
258.562
267.515
258.324
288.46
271.182
296.068
271.182
288.459
258.322
267.514
273.342
262.367
287.896
273.407
292.206
273.406
287.894
262.366
273.341
276.189
265.357
287.366
275.289
290.342
275.288
287.363
265.355
276.188
277.314
267.412
286.906
276.96
289.736
276.959
286.902
267.409
277.312
277.591
268.887
286.56
278.617
290.173
278.615
286.556
268.883
277.588
277.5
270.053
286.4
280.488
291.66
280.486
286.396
270.049
277.497
277.301
271.106
286.568
283.04
294.885
283.038
286.563
271.101
277.297
277.152
272.245
287.252
286.443
298.911
286.441
287.246
272.24
277.147
277.256
273.674
288.845
293.617
313.818
293.614
288.84
273.669
277.251
277.958
275.754
291.506
297.96
307.206
297.956
291.5
275.748
277.952
280.284
278.814
294.553
335.265
523.279
335.26
294.546
278.807
280.277
285.871
283.897
292.75
282.991
303.46
282.987
292.743
283.889
285.864
301.586
303.804
290.753
242.276
479.845
242.274
290.746
303.796
301.578
323.524
326.528
283.088
226.087
483.592
226.086
283.082
326.519
323.515
341.022
337.76
268.8
210.557
401.196
210.557
268.795
337.75
341.012
355.192
346.081
264.704
215.537
423.254
215.536
264.699
346.071
355.182
368.889
355.708
268.298
225.022
438.609
225.02
268.294
355.697
368.878
383.671
367.432
275.911
234.233
443.182
234.231
275.907
367.421
383.659
400.034
380.995
285.539
242.765
442.848
242.763
285.534
380.984
400.021
417.949
395.953
296.248
251.033
440.931
251.031
296.243
395.941
417.936
437.14
411.83
307.546
259.393
438.819
259.39
307.54
411.818
437.126
457.171
428.059
318.973
268.012
437.008
268.01
318.968
428.047
457.156
477.515
443.981
330.247
277.248
436.072
277.246
330.242
443.969
477.5
497.678
458.583
339.879
286.226
435.127
286.223
339.874
458.57
497.662
517.963
471.886
351.334
299.736
440.757
299.733
351.328
471.873
517.948
540.258
483.554
352.796
301.119
433.142
301.117
352.791
483.541
540.242
573.514
508.887
388.518
359.543
506.894
359.54
388.511
508.874
573.497
619.478
554.961
460.81
432.509
593.602
432.506
460.803
554.949
619.461
668.792
606.593
435.527
366.497
487.324
366.494
435.52
606.579
668.775
790.021
766.393
399.834
149.18
155.229
149.178
399.826
766.377
790.002
272.084
257.036
315.865
261.344
264.643
261.343
315.864
257.036
272.084
319.006
349.298
411.269
302.961
279.726
302.96
411.268
349.298
319.005
262.293
289.101
355.506
304.154
282.339
304.153
355.504
289.101
262.292
254.993
263.816
322.194
299.425
281.875
299.424
322.192
263.815
254.992
258.323
258.539
307.713
296.211
281.781
296.21
307.71
258.538
258.322
262.367
259.822
301.86
294.741
282.58
294.74
301.857
259.82
262.365
265.357
262.566
299.489
294.367
284.19
294.366
299.485
262.563
265.354
267.411
265.316
298.503
294.699
286.568
294.698
298.499
265.312
267.408
268.886
267.787
298.143
295.653
289.821
295.651
298.138
267.783
268.882
270.053
270.021
298.211
297.36
294.165
297.357
298.206
270.016
270.048
271.106
272.145
298.788
300.152
300.073
300.149
298.782
272.139
271.1
272.245
274.379
300.059
304.332
307.541
304.329
300.053
274.372
272.239
273.674
276.935
302.257
310.888
319.735
310.884
302.25
276.928
273.667
275.754
279.987
305.193
317.4
326.917
317.395
305.185
279.979
275.746
278.814
283.426
307.53
329.833
381.194
329.827
307.522
283.418
278.806
283.896
288.086
306.866
301.877
279.649
301.872
306.858
288.077
283.888
303.804
298.433
295.716
290.585
680.896
290.581
295.708
298.423
303.794
326.527
307.28
280.182
314.664
975.168
314.66
280.174
307.27
326.516
337.759
312.312
274.107
323.205
871.163
323.2
274.099
312.3
337.747
346.08
318.834
277.995
333.65
812.351
333.645
277.987
318.822
346.067
355.707
328.43
287.878
345.589
781.002
345.583
287.87
328.418
355.694
367.431
340.698
300.84
357.69
759.47
357.684
300.832
340.686
367.418
380.994
354.904
315.372
369.687
742.029
369.68
315.363
354.892
380.981
395.952
370.431
330.757
381.73
727.171
381.723
330.748
370.418
395.938
411.829
386.763
346.657
394.137
714.633
394.13
346.648
386.75
411.815
428.059
403.272
362.744
407.397
704.646
407.39
362.734
403.259
428.044
443.981
419.464
379.373
422.28
697.839
422.273
379.364
419.45
443.966
458.583
432.824
393.567
439.72
694.277
439.713
393.557
432.811
458.568
471.886
446.172
418.269
461.444
695.07
461.438
418.26
446.16
471.871
483.554
434.568
376.372
461.7
656.4
461.694
376.363
434.556
483.54
508.887
455.057
618.024
598.293
775.111
598.288
618.014
455.046
508.873
554.962
485.82
704.417
673.176
843.823
673.171
704.406
485.808
554.948
606.594
552.591
683.745
703.585
875.436
703.58
683.735
552.578
606.579
766.394
862.999
834.336
656.41
671.931
656.403
834.323
862.982
766.377
303.574
315.865
347.633
305.83
270.572
305.83
347.632
315.864
303.573
340.659
411.268
440.33
345.678
280.967
345.677
440.328
411.267
340.659
294.547
355.506
418.133
352.364
286.117
352.363
418.13
355.504
294.546
289.317
322.194
387.189
347.11
288.734
347.109
387.185
322.192
289.316
288.46
307.712
366.532
340.774
291.267
340.772
366.528
307.71
288.459
287.895
301.859
354.109
336.048
294.625
336.047
354.105
301.856
287.893
287.365
299.488
346.382
333.15
299.062
333.148
346.377
299.484
287.362
286.905
298.502
341.255
331.918
304.698
331.916
341.25
298.497
286.901
286.559
298.142
337.784
332.32
311.69
332.317
337.778
298.137
286.554
286.399
298.211
335.676
334.488
320.243
334.485
335.669
298.205
286.393
286.566
298.787
334.985
338.656
330.605
338.653
334.978
298.78
286.56
287.25
300.058
335.892
345.003
342.847
344.999
335.884
300.051
287.243
288.844
302.256
338.475
353.577
357.426
353.572
338.467
302.247
288.836
291.505
305.191
342.191
363.175
371.527
363.169
342.182
305.182
291.496
294.551
307.529
345.548
372.855
394.467
372.849
345.538
307.519
294.542
292.748
306.865
346.044
371.448
365.599
371.441
346.033
306.854
292.738
290.751
295.715
347.679
373.095
525.251
373.088
347.668
295.704
290.741
283.086
280.18
348.424
391.825
833.809
391.817
348.412
280.17
283.076
268.798
274.105
349.213
407.309
914.187
407.3
349.201
274.095
268.79
264.702
277.993
354.594
423.807
921.397
423.797
354.583
277.983
264.695
268.297
287.877
364.449
442.311
912.454
442.3
364.437
287.866
268.29
275.91
300.839
377.334
462.074
901.762
462.063
377.322
300.828
275.903
285.538
315.371
392.079
482.389
892.439
482.377
392.067
315.36
285.53
296.247
330.756
408.023
502.922
884.823
502.911
408.01
330.745
296.239
307.546
346.656
424.833
523.73
878.856
523.719
424.82
346.645
307.537
318.973
362.743
442.681
545.702
874.976
545.691
442.668
362.732
318.965
330.247
379.372
461.594
569.403
873.053
569.392
461.581
379.361
330.239
339.88
393.566
486.995
604.7
880.746
604.689
486.982
393.555
339.871
351.335
418.269
517.901
639.03
885.727
639.02
517.888
418.258
351.327
352.797
376.372
655.314
865.335
1061.36
865.325
655.298
376.361
352.79
388.519
618.025
1557.02
1057.66
1239.91
1057.66
1557.01
618.014
388.511
460.812
704.418
704.407
460.802
435.53
683.747
453.002
477.857
642.337
477.853
452.995
683.735
435.521
399.836
834.341
669.401
619.76
684.236
619.752
669.389
834.325
399.828
609.535
564.599
608.249
564.592
609.525
617.612
559.682
595.652
559.674
617.601
628.937
563.097
594.036
563.09
628.926
637.022
567.517
594.694
567.509
637.011
642.761
571.673
595.886
571.665
642.751
647.397
575.585
597.262
575.577
647.386
651.531
579.343
598.716
579.335
651.52
655.42
583.011
600.227
583.003
655.409
659.136
586.584
601.759
586.576
659.126
662.819
590.213
603.403
590.206
662.808
665.981
593.268
604.766
593.26
665.97
671.192
598.675
607.483
598.667
671.182
248.258
261.343
305.83
312.924
299.309
312.922
305.829
261.342
248.257
273.291
302.96
345.677
330.648
304.218
330.646
345.675
302.958
273.29
268.06
304.153
352.362
337.16
307.391
337.158
352.359
304.151
268.06
268.818
299.424
347.108
337.29
310.313
337.289
347.105
299.421
268.817
271.182
296.209
340.771
336.205
314.489
336.203
340.768
296.206
271.18
273.406
294.739
336.046
336.147
320.499
336.145
336.042
294.735
273.404
275.287
294.365
333.147
337.854
328.433
337.852
333.143
294.361
275.284
276.958
294.697
331.915
341.568
338.254
341.565
331.91
294.692
276.954
278.615
295.65
332.317
347.418
349.927
347.415
332.311
295.645
278.61
280.485
297.357
334.485
355.516
363.435
355.512
334.478
297.351
280.481
283.037
300.149
338.653
365.933
378.741
365.928
338.646
300.142
283.031
286.441
304.329
345
378.606
395.683
378.6
344.992
304.322
286.434
293.614
310.884
353.574
393.212
413.97
393.205
353.565
310.876
293.607
297.957
317.396
363.172
408.796
432.679
408.789
363.162
317.387
297.949
335.261
329.828
372.852
424.21
452.45
424.202
372.841
329.818
335.251
282.988
301.873
371.444
437.532
469.29
437.524
371.433
301.863
282.978
242.274
290.582
373.091
455.879
505.149
455.87
373.079
290.575
242.27
226.087
314.662
391.822
477.834
584.155
477.823
391.81
314.657
226.086
210.557
323.203
407.305
495.028
640.346
495.017
407.293
323.198
210.557
215.537
333.649
423.803
511.813
674.202
511.802
423.791
333.644
215.537
225.021
345.587
442.307
530.239
697.252
530.227
442.294
345.582
225.021
234.233
357.688
462.07
550.227
716.14
550.215
462.058
357.682
234.232
242.764
369.684
482.385
571.154
733.527
571.141
482.372
369.678
242.763
251.032
381.728
502.918
592.821
750.422
592.809
502.905
381.721
251.031
259.392
394.134
523.726
615.274
767.354
615.262
523.713
394.127
259.39
268.011
407.394
545.698
639.329
785.087
639.317
545.685
407.387
268.009
277.247
422.277
569.399
666.431
804.762
666.42
569.386
422.27
277.246
286.225
439.717
604.695
703.947
831.373
703.936
604.683
439.71
286.223
299.735
461.442
639.026
751.692
864.192
751.682
639.014
461.434
299.732
301.119
461.697
865.331
904.264
955.994
904.255
865.318
461.69
301.116
359.542
598.292
1057.66
605.605
669.801
605.602
1057.65
598.285
359.54
432.508
673.175
673.168
432.505
366.498
703.585
477.856
382.243
496.484
382.24
477.851
703.578
366.494
149.182
656.414
619.761
595.543
664.586
595.535
619.753
656.405
149.18
564.601
570.692
637.581
570.684
564.593
559.684
554.188
615.038
554.18
559.676
563.099
549.707
605.217
549.698
563.092
567.519
550.622
602.111
550.614
567.511
571.675
553.371
601.74
553.363
571.667
575.587
556.685
602.398
556.676
575.579
579.345
560.125
603.424
560.117
579.337
583.013
563.565
604.581
563.556
583.005
586.586
566.931
605.776
566.923
586.578
590.216
570.339
607.031
570.331
590.208
593.271
573.207
608.108
573.199
593.263
598.678
578.253
610.087
578.245
598.67
309.043
264.642
270.57
299.306
329.079
299.304
270.568
264.642
309.043
331.548
279.725
280.965
304.216
330.869
304.213
280.963
279.724
331.547
316.511
282.337
286.115
307.388
332.282
307.386
286.113
282.335
316.508
303.492
281.873
288.731
310.31
334.878
310.307
288.729
281.871
303.49
296.067
281.779
291.264
314.487
339.712
314.483
291.261
281.776
296.064
292.204
282.577
294.621
320.496
346.999
320.492
294.618
282.574
292.2
290.34
284.187
299.058
328.43
356.565
328.426
299.054
284.183
290.336
289.733
286.564
304.695
338.25
368.162
338.246
304.69
286.56
289.729
290.17
289.818
311.686
349.923
381.587
349.918
311.681
289.813
290.165
291.656
294.161
320.239
363.431
396.683
363.426
320.233
294.156
291.652
294.881
300.068
330.601
378.737
413.301
378.731
330.594
300.063
294.876
298.907
307.536
342.842
395.679
431.217
395.673
342.834
307.53
298.901
313.813
319.729
357.421
413.966
450.118
413.959
357.412
319.722
313.807
307.201
326.912
371.522
432.675
469.642
432.668
371.513
326.904
307.195
523.271
381.188
394.461
452.446
490.27
452.438
394.452
381.179
523.259
303.455
279.643
365.593
469.286
515.569
469.277
365.582
279.634
303.447
479.845
680.893
525.244
505.144
554.448
505.134
525.232
680.888
479.845
483.593
975.167
833.803
584.15
597.842
584.138
833.791
975.165
483.593
401.196
871.163
914.182
640.341
630.979
640.329
914.171
871.161
401.197
423.254
812.351
921.393
674.196
656.704
674.185
921.381
812.348
423.255
438.609
781.003
912.45
697.247
679.293
697.236
912.439
781
438.61
443.183
759.471
901.758
716.135
700.882
716.124
901.748
759.468
443.183
442.849
742.03
892.435
733.522
722.181
733.512
892.425
742.028
442.849
440.932
727.173
884.82
750.418
743.347
750.407
884.809
727.17
440.931
438.821
714.635
878.854
767.349
764.628
767.339
878.843
714.631
438.82
437.01
704.649
874.975
785.082
786.767
785.072
874.964
704.644
437.009
436.074
697.843
873.053
804.759
811.117
804.749
873.041
697.838
436.073
435.13
694.281
880.746
831.37
841.737
831.361
880.734
694.277
435.129
440.76
695.075
885.728
864.191
878.735
864.181
885.718
695.07
440.759
433.146
656.405
1061.36
955.993
943.065
955.984
1061.35
656.4
433.145
506.899
775.115
1239.91
669.8
746.98
669.798
1239.9
775.11
506.898
593.608
843.828
843.822
593.607
487.33
875.442
642.341
496.487
473.984
496.487
642.341
875.438
487.329
155.232
671.939
684.242
664.591
610.434
664.589
684.24
671.936
155.233
608.255
637.586
614.472
637.584
608.252
595.658
615.043
601.745
615.041
595.654
594.042
605.223
594.273
605.22
594.037
594.7
602.117
591.89
602.115
594.695
595.892
601.745
592.056
601.743
595.887
597.268
602.404
593.269
602.402
597.263
598.722
603.429
594.846
603.427
598.717
600.233
604.587
596.519
604.585
600.228
601.766
605.781
598.181
605.78
601.761
603.409
607.036
599.85
607.035
603.404
604.772
608.114
601.272
608.112
604.767
607.489
610.092
603.684
610.091
607.484
248.258
261.343
305.828
312.92
299.302
312.919
305.828
261.342
248.257
273.291
302.959
345.676
330.644
304.212
330.643
345.674
302.959
273.291
268.06
304.152
352.361
337.156
307.384
337.155
352.359
304.151
268.06
268.818
299.423
347.107
337.286
310.306
337.285
347.104
299.422
268.817
271.181
296.208
340.77
336.201
314.482
336.2
340.767
296.206
271.18
273.405
294.737
336.044
336.142
320.49
336.141
336.041
294.735
273.403
275.286
294.363
333.145
337.849
328.424
337.847
333.142
294.36
275.284
276.955
294.694
331.912
341.562
338.244
341.56
331.909
294.691
276.953
278.612
295.648
332.313
347.411
349.916
347.409
332.31
295.644
278.609
280.483
297.354
334.48
355.508
363.424
355.505
334.476
297.35
280.479
283.034
300.145
338.648
365.924
378.729
365.921
338.643
300.141
283.03
286.436
304.325
344.993
378.595
395.67
378.592
344.988
304.32
286.433
293.609
310.879
353.566
393.2
413.957
393.196
353.561
310.874
293.605
297.952
317.39
363.164
408.784
432.665
408.78
363.157
317.384
297.947
335.254
329.821
372.843
424.197
452.436
424.192
372.836
329.815
335.248
282.982
301.866
371.434
437.519
469.274
437.514
371.427
301.86
282.976
242.272
290.577
373.081
455.864
505.131
455.858
373.074
290.572
242.269
226.086
314.658
391.811
477.818
584.135
477.811
391.804
314.655
226.085
210.557
323.199
407.295
495.013
640.326
495.006
407.288
323.197
210.557
215.537
333.645
423.794
511.797
674.182
511.79
423.787
333.642
215.537
225.021
345.583
442.297
530.223
697.233
530.215
442.29
345.581
225.021
234.232
357.684
462.061
550.211
716.121
550.203
462.054
357.681
234.232
242.764
369.681
482.376
571.138
733.509
571.13
482.368
369.678
242.764
251.033
381.726
502.91
592.806
750.405
592.799
502.902
381.723
251.032
259.393
394.133
523.719
615.26
767.337
615.252
523.711
394.13
259.392
268.013
407.394
545.693
639.317
785.07
639.309
545.685
407.39
268.012
277.249
422.278
569.396
666.421
804.747
666.414
569.388
422.274
277.248
286.227
439.719
604.694
703.938
831.36
703.932
604.685
439.715
286.226
299.738
461.445
639.026
751.685
864.181
751.679
639.018
461.441
299.737
301.122
461.702
865.334
904.259
955.984
904.252
865.325
461.697
301.121
359.547
598.297
1057.67
605.604
669.799
605.601
1057.66
598.292
359.546
432.513
673.18
673.176
432.512
366.501
703.59
477.859
382.246
496.491
382.245
477.858
703.586
366.499
149.181
656.412
619.761
595.544
664.594
595.541
619.757
656.407
149.18
564.6
570.692
637.589
570.69
564.595
559.682
554.188
615.045
554.186
559.677
563.097
549.706
605.224
549.705
563.092
567.517
550.622
602.119
550.62
567.512
571.673
553.371
601.747
553.37
571.668
575.585
556.684
602.406
556.683
575.58
579.343
560.125
603.432
560.124
579.338
583.011
563.564
604.589
563.563
583.006
586.584
566.931
605.784
566.93
586.58
590.214
570.339
607.039
570.338
590.209
593.268
573.207
608.116
573.206
593.264
598.675
578.253
610.095
578.252
598.671
303.573
315.863
347.631
305.826
270.567
305.827
347.63
315.863
303.574
340.658
411.267
440.327
345.673
280.962
345.674
440.326
411.267
340.659
294.546
355.504
418.128
352.358
286.112
352.359
418.128
355.503
294.546
289.315
322.191
387.183
347.104
288.728
347.104
387.183
322.19
289.315
288.458
307.709
366.526
340.766
291.26
340.767
366.525
307.708
288.457
287.892
301.855
354.102
336.04
294.617
336.04
354.101
301.854
287.891
287.361
299.482
346.374
333.141
299.053
333.141
346.373
299.481
287.36
286.9
298.496
341.247
331.908
304.689
331.908
341.245
298.494
286.899
286.553
298.135
337.774
332.309
311.68
332.309
337.772
298.133
286.552
286.392
298.203
335.665
334.476
320.231
334.475
335.663
298.2
286.39
286.559
298.778
334.973
338.643
330.592
338.642
334.971
298.776
286.557
287.243
300.049
335.879
344.989
342.832
344.987
335.876
300.046
287.24
288.835
302.245
338.462
353.561
357.411
353.56
338.459
302.242
288.833
291.496
305.18
342.178
363.158
371.511
363.157
342.174
305.177
291.493
294.542
307.518
345.534
372.838
394.45
372.836
345.529
307.514
294.538
292.738
306.853
346.029
371.429
365.58
371.427
346.024
306.849
292.734
290.742
295.703
347.663
373.076
525.231
373.073
347.658
295.699
290.738
283.078
280.17
348.408
391.807
833.789
391.803
348.403
280.165
283.074
268.792
274.095
349.197
407.291
914.169
407.287
349.193
274.09
268.788
264.696
277.983
354.579
423.79
921.38
423.785
354.574
277.979
264.693
268.291
287.867
364.433
442.294
912.438
442.288
364.428
287.862
268.287
275.904
300.828
377.318
462.058
901.747
462.052
377.313
300.824
275.9
285.531
315.361
392.063
482.373
892.425
482.366
392.058
315.355
285.527
296.24
330.746
408.008
502.907
884.809
502.9
408.002
330.74
296.236
307.538
346.645
424.817
523.715
878.842
523.708
424.812
346.64
307.534
318.966
362.733
442.666
545.689
874.963
545.682
442.661
362.727
318.962
330.24
379.362
461.58
569.391
873.041
569.384
461.575
379.357
330.236
339.872
393.557
486.983
604.688
880.736
604.682
486.977
393.552
339.868
351.328
418.261
517.891
639.021
885.719
639.015
517.884
418.256
351.324
352.791
376.365
655.305
865.327
1061.35
865.322
655.298
376.36
352.787
388.512
618.02
1557.02
1057.66
1239.9
1057.66
1557.01
618.015
388.508
460.804
704.415
704.41
460.799
435.521
683.742
452.999
477.859
642.344
477.857
452.995
683.736
435.517
399.829
834.33
669.394
619.761
684.244
619.757
669.39
834.323
399.825
609.529
564.599
608.255
564.596
609.525
617.606
559.681
595.658
559.678
617.602
628.932
563.096
594.041
563.093
628.927
637.017
567.516
594.699
567.513
637.013
642.756
571.672
595.891
571.669
642.752
647.392
575.584
597.267
575.581
647.388
651.526
579.342
598.721
579.339
651.522
655.415
583.01
600.232
583.008
655.411
659.132
586.584
601.764
586.581
659.128
662.815
590.213
603.408
590.211
662.811
665.977
593.268
604.771
593.266
665.973
671.189
598.675
607.488
598.673
671.185
272.083
257.036
315.863
261.342
264.641
261.342
315.863
257.036
272.084
319.005
349.297
411.267
302.958
279.723
302.959
411.266
349.297
319.005
262.292
289.1
355.503
304.15
282.335
304.151
355.503
289.1
262.292
254.992
263.815
322.191
299.421
281.871
299.421
322.19
263.814
254.992
258.321
258.537
307.708
296.206
281.776
296.206
307.708
258.536
258.321
262.364
259.819
301.855
294.734
282.573
294.735
301.854
259.818
262.363
265.353
262.561
299.482
294.359
284.182
294.359
299.481
262.56
265.352
267.407
265.31
298.495
294.69
286.559
294.69
298.494
265.309
267.406
268.881
267.781
298.135
295.644
289.812
295.644
298.133
267.78
268.88
270.047
270.014
298.202
297.35
294.154
297.35
298.2
270.013
270.045
271.099
272.137
298.778
300.141
300.062
300.141
298.776
272.135
271.097
272.238
274.37
300.048
304.32
307.529
304.32
300.046
274.368
272.236
273.666
276.925
302.244
310.874
319.721
310.874
302.242
276.923
273.664
275.745
279.976
305.179
317.385
326.903
317.384
305.177
279.974
275.742
278.804
283.415
307.516
329.816
381.178
329.815
307.514
283.412
278.801
283.886
288.074
306.852
301.861
279.633
301.86
306.849
288.071
283.883
303.792
298.42
295.701
290.573
680.887
290.572
295.699
298.416
303.788
326.515
307.266
280.168
314.656
975.164
314.655
280.165
307.263
326.51
337.746
312.297
274.093
323.198
871.162
323.196
274.09
312.293
337.741
346.067
318.819
277.981
333.644
812.35
333.641
277.979
318.815
346.062
355.693
328.415
287.865
345.583
781.001
345.58
287.862
328.411
355.688
367.417
340.683
300.826
357.683
759.47
357.68
300.824
340.678
367.412
380.98
354.889
315.359
369.68
742.03
369.677
315.356
354.885
380.975
395.937
370.416
330.744
381.725
727.172
381.721
330.741
370.411
395.932
411.814
386.748
346.644
394.131
714.634
394.127
346.641
386.743
411.809
428.044
403.257
362.731
407.391
704.647
407.388
362.728
403.252
428.039
443.966
419.449
379.361
422.275
697.841
422.272
379.358
419.445
443.961
458.569
432.81
393.556
439.716
694.281
439.713
393.553
432.805
458.563
471.872
446.159
418.26
461.442
695.074
461.438
418.257
446.155
471.867
483.541
434.556
376.363
461.698
656.403
461.695
376.36
434.551
483.536
508.874
455.047
618.02
598.292
775.113
598.29
618.016
455.043
508.87
554.95
485.811
704.414
673.176
843.825
673.174
704.41
485.807
554.945
606.582
552.581
683.741
703.587
875.442
703.585
683.737
552.576
606.577
766.383
862.989
834.331
656.412
671.94
656.409
834.327
862.985
766.379
278.133
272.084
303.574
248.257
309.042
248.257
303.574
272.084
278.133
314.126
319.005
340.659
273.29
331.546
273.29
340.659
319.005
314.126
255.933
262.292
294.546
268.059
316.508
268.059
294.546
262.292
255.932
258.562
254.992
289.315
268.817
303.489
268.817
289.315
254.992
258.561
267.514
258.321
288.458
271.179
296.063
271.179
288.458
258.321
267.513
273.34
262.364
287.892
273.403
292.2
273.403
287.892
262.363
273.338
276.186
265.353
287.361
275.283
290.336
275.284
287.361
265.352
276.185
277.31
267.407
286.9
276.953
289.729
276.953
286.899
267.406
277.308
277.587
268.881
286.553
278.609
290.164
278.609
286.552
268.88
277.585
277.495
270.046
286.391
280.479
291.651
280.479
286.39
270.045
277.493
277.295
271.098
286.558
283.03
294.875
283.03
286.557
271.097
277.293
277.145
272.237
287.242
286.433
298.9
286.432
287.24
272.236
277.143
277.249
273.666
288.834
293.605
313.806
293.605
288.833
273.664
277.246
277.95
275.745
291.494
297.947
307.194
297.947
291.493
275.742
277.947
280.275
278.804
294.54
335.25
523.257
335.248
294.538
278.801
280.272
285.862
283.886
292.736
282.977
303.446
282.976
292.734
283.883
285.859
301.576
303.791
290.74
242.27
479.844
242.269
290.738
303.788
301.572
323.512
326.514
283.076
226.086
483.593
226.085
283.074
326.51
323.509
341.009
337.745
268.79
210.557
401.197
210.557
268.788
337.742
341.005
355.179
346.066
264.694
215.537
423.254
215.537
264.693
346.062
355.174
368.875
355.692
268.289
225.022
438.61
225.021
268.288
355.688
368.871
383.657
367.416
275.902
234.233
443.183
234.232
275.9
367.412
383.652
400.019
380.979
285.529
242.764
442.85
242.763
285.528
380.975
400.013
417.934
395.936
296.238
251.033
440.932
251.031
296.237
395.933
417.929
437.124
411.813
307.537
259.392
438.821
259.391
307.535
411.81
437.119
457.155
428.043
318.964
268.012
437.011
268.011
318.963
428.04
457.149
477.499
443.966
330.238
277.249
436.075
277.247
330.237
443.962
477.493
497.662
458.568
339.871
286.226
435.13
286.225
339.87
458.564
497.657
517.948
471.872
351.327
299.736
440.761
299.735
351.326
471.868
517.943
540.243
483.54
352.79
301.121
433.147
301.12
352.789
483.537
540.238
573.499
508.874
388.512
359.545
506.901
359.544
388.51
508.871
573.494
619.464
554.95
460.804
432.511
593.61
432.51
460.802
554.946
619.458
668.778
606.581
435.522
366.499
487.332
366.498
435.519
606.577
668.773
790.01
766.386
399.831
149.181
155.234
149.18
399.828
766.382
790.009
)
;

boundaryField
{
    injectionXMinus
    {
        type            uniformFixedValue;
        uniformValue    uniform 400;
        value           uniform 400;
    }
    injectionXPlus
    {
        type            uniformFixedValue;
        uniformValue    uniform 400;
        value           uniform 400;
    }
    injectionYMinus
    {
        type            uniformFixedValue;
        uniformValue    uniform 400;
        value           uniform 400;
    }
    injectionYPlus
    {
        type            uniformFixedValue;
        uniformValue    uniform 400;
        value           uniform 400;
    }
    inletXMinus
    {
        type            uniformFixedValue;
        uniformValue    uniform 293.15;
        value           uniform 293.15;
    }
    inletXPlus
    {
        type            uniformFixedValue;
        uniformValue    uniform 293.15;
        value           uniform 293.15;
    }
    inletYMinus
    {
        type            uniformFixedValue;
        uniformValue    uniform 293.15;
        value           uniform 293.15;
    }
    inletYPlus
    {
        type            uniformFixedValue;
        uniformValue    uniform 293.15;
        value           uniform 293.15;
    }
    outlet
    {
        type            zeroGradient;
    }
    valve
    {
        type            zeroGradient;
    }
    walls
    {
        type            zeroGradient;
    }
}


// ************************************************************************* //
