/*--------------------------------*- C++ -*----------------------------------*\
  =========                 |
  \\      /  F ield         | OpenFOAM: The Open Source CFD Toolbox
   \\    /   O peration     | Website:  https://openfoam.org
    \\  /    A nd           | Version:  6
     \\/     M anipulation  |
\*---------------------------------------------------------------------------*/
FoamFile
{
    version     2.0;
    format      ascii;
    class       volScalarField;
    location    "0.5";
    object      T;
}
// * * * * * * * * * * * * * * * * * * * * * * * * * * * * * * * * * * * * * //

dimensions      [0 0 0 1 0 0 0];

internalField   nonuniform List<scalar> 
3029
(
277.841
271.498
303.986
245.884
310.315
245.884
303.986
271.498
277.841
314.604
319.569
341.932
271.276
334.723
271.277
341.932
319.569
314.604
255.961
262.168
295.174
265.35
320.53
265.35
295.173
262.168
255.96
258.452
254.16
289.824
265.311
307.894
265.311
289.824
254.16
258.452
267.583
256.915
289.116
267.015
300.66
267.015
289.115
256.914
267.582
273.72
260.477
288.754
268.709
296.863
268.709
288.752
260.476
273.719
276.881
263.042
288.394
270.146
294.936
270.145
288.392
263.04
276.88
278.271
264.712
288.043
271.416
294.102
271.415
288.041
264.71
278.27
278.76
265.844
287.737
272.657
294.073
272.656
287.735
265.842
278.758
278.85
266.726
287.541
274.023
294.791
274.022
287.538
266.723
278.847
278.834
267.567
287.558
275.711
296.433
275.709
287.554
267.563
278.832
278.919
268.549
287.922
277.926
298.917
277.925
287.918
268.545
278.916
279.281
269.867
288.807
281.231
304.247
281.229
288.802
269.863
279.277
280.121
271.693
290.257
285.256
307.228
285.254
290.253
271.688
280.117
281.804
274.394
292.481
293.777
347.324
293.775
292.476
274.389
281.799
284.955
278.156
293.26
287.12
306.328
287.117
293.255
278.15
284.95
291.508
287.351
300.025
267.979
434.075
267.977
300.019
287.345
291.503
300.601
299.705
305.923
258.366
490.841
258.363
305.917
299.699
300.596
309.57
309.587
307.39
255.669
463.151
255.666
307.384
309.58
309.564
318.806
319.102
312.647
263.719
474.571
263.716
312.641
319.095
318.799
329.142
329.736
321.519
274.558
479.49
274.554
321.513
329.728
329.135
341.021
341.967
332.836
285.954
479.532
285.95
332.829
341.959
341.013
354.557
355.843
345.864
297.66
478.095
297.655
345.858
355.834
354.549
369.678
371.236
360.171
309.781
476.802
309.777
360.165
371.227
369.67
386.186
387.921
375.418
322.41
476.262
322.406
375.411
387.912
386.177
403.771
405.543
391.131
335.491
476.632
335.487
391.124
405.533
403.762
422.042
423.649
406.942
349.146
478.269
349.141
406.935
423.639
422.033
440.639
441.427
421.026
362.04
479.922
362.036
421.019
441.418
440.629
459.896
458.92
436.617
378.363
487.322
378.359
436.61
458.911
459.886
481.604
475.596
441.456
381.831
481.414
381.827
441.45
475.587
481.593
513.668
505.45
486.018
441.722
548.395
441.718
486.011
505.441
513.657
556.755
550.967
569.327
529.907
642.089
529.902
569.32
550.958
556.744
599.574
587.824
525.993
479
561.561
478.996
525.986
587.814
599.562
707.85
714.506
425.391
220.481
217.551
220.478
425.385
714.497
707.84
271.498
253.687
314.01
256.902
260.559
256.902
314.01
253.687
271.498
319.569
349.158
414.988
301.329
275.933
301.329
414.988
349.157
319.569
262.168
288.316
359.28
303.541
278.807
303.541
359.279
288.316
262.168
254.16
261.655
325.209
298.947
278.339
298.947
325.208
261.654
254.16
256.915
254.994
310.1
295.584
278.001
295.584
310.098
254.993
256.913
260.477
255.056
303.867
293.888
278.37
293.888
303.865
255.055
260.475
263.042
256.772
301.306
293.246
279.383
293.245
301.304
256.769
263.04
264.712
258.678
300.247
293.233
280.972
293.232
300.244
258.675
264.709
265.844
260.48
299.86
293.683
283.164
293.682
299.856
260.477
265.841
266.726
262.205
299.871
294.601
286.057
294.6
299.867
262.201
266.722
267.567
263.966
300.253
296.106
289.839
296.104
300.249
263.961
267.563
268.548
265.898
301.096
298.36
294.589
298.358
301.091
265.894
268.544
269.867
268.199
302.507
301.634
301.142
301.632
302.502
268.194
269.862
271.693
271.017
304.513
305.727
307.391
305.725
304.507
271.011
271.687
274.394
274.534
306.895
310.951
324.893
310.948
306.888
274.528
274.388
278.155
278.915
308.795
309.524
300.639
309.521
308.788
278.908
278.149
287.351
286.372
311.262
301.046
412.964
301.042
311.256
286.364
287.344
299.705
295.597
312.779
300.76
590.449
300.756
312.772
295.588
299.697
309.587
304.155
315.691
306.216
604.093
306.212
315.684
304.147
309.579
319.102
313.402
322.427
317.837
605.941
317.832
322.42
313.393
319.093
329.736
324.208
332.424
332.422
607.85
332.416
332.417
324.199
329.727
341.967
336.747
344.758
348.388
610.698
348.382
344.75
336.738
341.958
355.842
350.934
358.838
365.233
614.595
365.227
358.83
350.925
355.832
371.235
366.599
374.306
382.843
619.449
382.836
374.298
366.589
371.225
387.92
383.533
390.941
401.252
625.236
401.245
390.933
383.523
387.91
405.542
401.361
408.392
420.614
631.873
420.607
408.383
401.35
405.531
423.648
419.879
426.961
441.181
639.246
441.174
426.953
419.869
423.637
441.427
436.887
443.254
462.914
645.654
462.907
443.245
436.877
441.416
458.92
455.22
469.318
485.006
649.722
485
469.31
455.21
458.909
475.596
450.865
428.471
478.532
603.403
478.527
428.463
450.856
475.586
505.45
473.869
636.95
571.002
684.589
570.998
636.942
473.86
505.439
550.967
505.724
718.787
627.613
734.454
627.609
718.78
505.716
550.957
587.824
556.163
733.609
726.979
830.296
726.974
733.601
556.153
587.813
714.506
807.705
852.842
762.024
760.003
762.016
852.833
807.696
714.498
303.986
314.01
345.379
301.55
261.848
301.549
345.378
314.01
303.986
341.932
414.988
447.416
346.399
271.888
346.399
447.415
414.987
341.932
295.174
359.28
428.808
356.536
276.727
356.536
428.806
359.279
295.173
289.824
325.209
399.341
353.282
278.798
353.282
399.339
325.207
289.823
289.115
310.1
379.684
348.102
280.479
348.102
379.681
310.098
289.114
288.754
303.867
368.194
343.983
282.685
343.983
368.191
303.864
288.752
288.394
301.306
361.345
341.211
285.665
341.211
361.342
301.303
288.391
288.043
300.247
356.945
339.581
289.491
339.58
356.94
300.243
288.039
287.737
299.859
353.92
338.953
294.227
338.952
353.916
299.855
287.733
287.54
299.871
351.833
339.321
299.962
339.319
351.828
299.866
287.536
287.557
300.253
350.567
340.769
306.81
340.767
350.561
300.247
287.553
287.921
301.096
350.156
343.412
314.852
343.41
350.15
301.09
287.916
288.806
302.506
350.667
347.343
324.255
347.341
350.66
302.5
288.8
290.256
304.511
352.043
352.427
334.547
352.424
352.035
304.504
290.25
292.48
306.893
354.01
358.338
347.205
358.335
354.002
306.886
292.473
293.259
308.794
355.9
363.297
354.421
363.294
355.892
308.786
293.252
300.023
311.261
359.47
369.223
383.078
369.22
359.461
311.253
300.016
305.921
312.778
364.407
377.243
449.003
377.238
364.398
312.769
305.913
307.389
315.689
369.826
385.923
484.251
385.918
369.817
315.681
307.38
312.645
322.426
377.413
397.463
506.815
397.458
377.404
322.417
312.637
321.518
332.423
387.444
411.624
525.604
411.618
387.434
332.414
321.509
332.834
344.757
399.523
427.669
543.602
427.662
399.513
344.747
332.825
345.863
358.837
413.248
445.081
561.69
445.074
413.237
358.827
345.854
360.17
374.306
428.37
463.628
580.142
463.621
428.36
374.295
360.16
375.417
390.941
444.721
483.25
598.985
483.242
444.711
390.93
375.407
391.13
408.391
462.521
504.556
618.643
504.548
462.511
408.38
391.12
406.942
426.961
481.447
527.373
638.766
527.365
481.436
426.95
406.932
421.026
443.254
506.907
560.551
666.283
560.544
506.896
443.243
421.016
436.617
469.318
535.19
588.67
688.445
588.663
535.179
469.307
436.608
441.457
428.471
669.103
786.78
853.763
786.773
669.09
428.461
441.448
486.02
636.951
1454.62
910.771
1032.29
910.768
1454.61
636.942
486.01
569.329
718.788
718.779
569.318
525.995
733.61
482.705
480.323
588.79
480.321
482.699
733.601
525.986
425.393
852.845
687.525
668.668
705.452
668.662
687.517
852.834
425.387
621.508
615.041
644.809
615.035
621.501
629.621
611.724
638.652
611.718
629.614
642.636
617.129
640.871
617.123
642.629
652.234
623.062
644.197
623.056
652.227
659.748
628.835
647.858
628.829
659.74
666.196
634.364
651.601
634.358
666.189
672.162
639.734
655.368
639.728
672.155
677.901
645.015
659.153
645.009
677.894
683.459
650.181
662.906
650.176
683.452
689.067
655.446
666.796
655.441
689.06
693.786
659.858
670.044
659.853
693.779
702.11
667.796
676.088
667.791
702.103
245.883
256.902
301.549
308.354
285.82
308.351
301.547
256.901
245.883
271.276
301.329
346.398
328.683
290.11
328.681
346.396
301.328
271.276
265.35
303.54
356.535
337.325
292.359
337.323
356.533
303.539
265.349
265.311
298.946
353.281
338.537
293.966
338.535
353.278
298.945
265.31
267.015
295.583
348.1
337.568
296.407
337.566
348.098
295.581
267.014
268.708
293.887
343.981
336.777
300.253
336.775
343.978
293.884
268.707
270.145
293.244
341.209
336.953
305.59
336.951
341.205
293.242
270.143
271.414
293.231
339.578
338.332
312.354
338.33
339.574
293.228
271.412
272.656
293.681
338.95
341.006
320.473
341.004
338.946
293.677
272.653
274.021
294.598
339.318
345.047
329.897
345.045
339.313
294.594
274.018
275.709
296.103
340.766
350.526
340.593
350.522
340.761
296.099
275.705
277.924
298.358
343.409
357.486
352.515
357.483
343.403
298.353
277.92
281.228
301.631
347.341
365.92
365.585
365.916
347.335
301.626
281.223
285.254
305.724
352.424
375.69
379.631
375.686
352.417
305.718
285.249
293.775
310.948
358.335
386.607
394.615
386.603
358.328
310.942
293.769
287.118
309.521
363.294
398.349
410.541
398.344
363.286
309.514
287.111
267.977
301.043
369.221
413.154
431.441
413.149
369.212
301.036
267.972
258.364
300.757
377.24
429.566
455.843
429.56
377.231
300.75
258.36
255.667
306.213
385.92
444.413
476.87
444.406
385.91
306.206
255.664
263.717
317.834
397.46
459.188
496.039
459.181
397.451
317.827
263.713
274.556
332.419
411.621
474.84
514.82
474.833
411.611
332.411
274.552
285.952
348.385
427.666
491.508
533.783
491.501
427.655
348.376
285.948
297.658
365.23
445.078
509.079
553.057
509.072
445.068
365.221
297.653
309.779
382.839
463.625
527.488
572.697
527.48
463.614
382.83
309.774
322.408
401.248
483.247
546.823
592.852
546.815
483.236
401.238
322.403
335.489
420.61
504.553
567.723
614.12
567.715
504.542
420.6
335.484
349.144
441.177
527.37
591.049
637.411
591.041
527.358
441.167
349.138
362.038
462.911
560.549
622.847
667.348
622.839
560.538
462.901
362.032
378.362
485.003
588.668
660.299
702.415
660.292
588.657
484.994
378.356
381.83
478.53
786.779
785.849
793.156
785.842
786.766
478.521
381.825
441.721
571.001
910.769
508.596
560.045
508.594
910.761
570.994
441.715
529.907
627.611
627.604
529.9
479.001
726.979
480.323
376.532
452.556
376.53
480.32
726.971
478.995
220.482
762.026
668.67
614.741
641.445
614.738
668.662
762.015
220.478
615.042
595.644
626.27
595.641
615.034
611.726
581.616
609.685
581.612
611.717
617.13
579.45
603.885
579.446
617.122
623.063
581.92
603.549
581.915
623.055
628.836
586.179
605.626
586.174
628.828
634.365
590.988
608.605
590.983
634.357
639.735
595.923
611.885
595.918
639.727
645.016
600.865
615.257
600.86
645.008
650.183
605.726
618.614
605.722
650.175
655.448
610.687
622.066
610.683
655.44
659.86
614.823
624.942
614.819
659.852
667.798
622.345
630.269
622.341
667.79
310.313
260.558
261.846
285.818
310.597
285.815
261.845
260.557
310.313
334.721
275.932
271.886
290.109
311.72
290.106
271.884
275.931
334.72
320.529
278.806
276.725
292.357
312.17
292.354
276.723
278.804
320.527
307.893
278.338
278.796
293.965
313.502
293.962
278.794
278.336
307.891
300.658
277.999
280.477
296.405
316.755
296.402
280.474
277.997
300.656
296.861
278.368
282.682
300.251
322.116
300.248
282.68
278.365
296.859
294.934
279.381
285.663
305.588
329.379
305.585
285.66
279.378
294.931
294.1
280.969
289.488
312.352
338.262
312.348
289.485
280.967
294.097
294.07
283.162
294.224
320.47
348.525
320.467
294.22
283.158
294.067
294.788
286.054
299.958
329.894
359.993
329.89
299.955
286.051
294.784
296.43
289.835
306.807
340.59
372.538
340.586
306.803
289.831
296.426
298.914
294.585
314.848
352.512
386.048
352.507
314.843
294.581
298.909
304.243
301.138
324.25
365.582
400.406
365.577
324.245
301.133
304.238
307.224
307.387
334.544
379.628
415.489
379.623
334.538
307.382
307.219
347.32
324.89
347.201
394.612
431.408
394.606
347.194
324.884
347.314
306.324
300.635
354.416
410.537
448.78
410.531
354.41
300.63
306.317
434.073
412.959
383.074
431.438
471.089
431.431
383.066
412.953
434.071
490.841
590.445
448.998
455.839
495.378
455.832
448.989
590.438
490.84
463.152
604.089
484.246
476.867
516.074
476.859
484.237
604.083
463.151
474.571
605.937
506.81
496.036
534.261
496.028
506.8
605.931
474.571
479.49
607.847
525.599
514.817
551.588
514.809
525.589
607.84
479.489
479.532
610.696
543.597
533.779
568.864
533.771
543.588
610.688
479.531
478.095
614.593
561.685
553.054
586.36
553.046
561.675
614.585
478.094
476.803
619.446
580.138
572.694
604.186
572.686
580.128
619.439
476.801
476.263
625.234
598.981
592.85
622.572
592.841
598.971
625.227
476.261
476.633
631.873
618.64
614.118
642.164
614.11
618.629
631.865
476.631
478.271
639.246
638.764
637.41
664.08
637.402
638.753
639.238
478.269
479.924
645.655
666.281
667.347
691.961
667.339
666.27
645.647
479.922
487.325
649.723
688.444
702.415
725.468
702.407
688.433
649.715
487.323
481.418
603.405
853.764
793.157
785.328
793.15
853.752
603.397
481.416
548.399
684.591
1032.29
560.046
630.271
560.044
1032.28
684.584
548.396
642.094
734.456
734.448
642.091
561.566
830.302
588.793
452.556
429.565
452.553
588.789
830.296
561.564
217.554
760.01
705.458
641.447
564.514
641.443
705.452
760.005
217.553
644.815
626.273
572.77
626.27
644.81
638.658
609.688
563.904
609.684
638.654
640.877
603.888
559.615
603.884
640.872
644.204
603.553
559.537
603.549
644.199
647.864
605.63
561.718
605.626
647.86
651.607
608.609
564.837
608.605
651.603
655.375
611.888
568.281
611.885
655.37
659.159
615.261
571.815
615.257
659.154
662.913
618.618
575.316
618.614
662.908
666.802
622.07
578.89
622.067
666.798
670.05
624.946
581.85
624.942
670.046
676.094
630.273
587.332
630.27
676.09
245.884
256.902
301.548
308.351
285.815
308.35
301.548
256.901
245.883
271.277
301.329
346.397
328.68
290.105
328.679
346.396
301.328
271.276
265.35
303.54
356.534
337.322
292.353
337.322
356.534
303.54
265.349
265.311
298.946
353.28
338.534
293.961
338.534
353.279
298.945
265.31
267.014
295.583
348.099
337.565
296.401
337.564
348.098
295.581
267.013
268.708
293.886
343.98
336.773
300.247
336.773
343.979
293.885
268.706
270.144
293.243
341.208
336.95
305.584
336.949
341.206
293.242
270.142
271.413
293.23
339.577
338.328
312.347
338.327
339.574
293.228
271.412
272.654
293.679
338.949
341.002
320.465
341.001
338.946
293.677
272.652
274.02
294.597
339.316
345.042
329.889
345.041
339.313
294.594
274.018
275.707
296.101
340.764
350.52
340.585
350.518
340.761
296.098
275.704
277.922
298.355
343.406
357.48
352.506
357.478
343.403
298.352
277.919
281.225
301.628
347.337
365.913
365.576
365.911
347.334
301.625
281.223
285.251
305.721
352.42
375.683
379.621
375.681
352.416
305.718
285.248
293.771
310.945
358.331
386.6
394.604
386.597
358.326
310.941
293.768
287.114
309.517
363.289
398.341
410.529
398.338
363.285
309.513
287.11
267.974
301.039
369.215
413.145
431.43
413.142
369.21
301.035
267.97
258.361
300.753
377.234
429.557
455.831
429.553
377.229
300.749
258.359
255.665
306.209
385.914
444.403
476.858
444.399
385.908
306.205
255.663
263.714
317.829
397.454
459.178
496.027
459.175
397.448
317.825
263.712
274.553
332.414
411.615
474.83
514.807
474.826
411.609
332.409
274.551
285.949
348.38
427.659
491.498
533.769
491.493
427.653
348.376
285.947
297.655
365.225
445.071
509.07
553.044
509.065
445.066
365.221
297.652
309.776
382.836
463.619
527.478
572.684
527.474
463.613
382.831
309.774
322.406
401.245
483.241
546.814
592.84
546.809
483.235
401.24
322.404
335.488
420.608
504.548
567.714
614.109
567.71
504.542
420.603
335.485
349.143
441.176
527.366
591.041
637.402
591.036
527.359
441.171
349.14
362.038
462.911
560.546
622.84
667.339
622.836
560.539
462.906
362.035
378.362
485.004
588.666
660.294
702.408
660.29
588.659
484.999
378.359
381.831
478.532
786.778
785.845
793.151
785.84
786.77
478.527
381.828
441.723
571.003
910.77
508.595
560.045
508.593
910.763
570.999
441.72
529.908
627.614
627.609
529.905
479.002
726.981
480.326
376.535
452.558
376.534
480.324
726.976
478.999
220.481
762.025
668.671
614.746
641.449
614.744
668.666
762.019
220.479
615.041
595.648
626.274
595.646
615.037
611.724
581.619
609.688
581.617
611.72
617.129
579.453
603.888
579.45
617.125
623.062
581.923
603.552
581.92
623.058
628.835
586.181
605.629
586.179
628.831
634.365
590.99
608.609
590.988
634.36
639.735
595.926
611.888
595.923
639.73
645.016
600.868
615.261
600.865
645.012
650.183
605.729
618.618
605.727
650.178
655.448
610.691
622.07
610.688
655.444
659.86
614.826
624.946
614.824
659.856
667.798
622.348
630.273
622.346
667.794
303.986
314.01
345.377
301.547
261.844
301.547
345.377
314.01
303.986
341.932
414.987
447.414
346.396
271.883
346.396
447.414
414.987
341.932
295.173
359.278
428.805
356.533
276.722
356.533
428.805
359.278
295.173
289.823
325.207
399.338
353.278
278.793
353.278
399.337
325.207
289.823
289.113
310.097
379.679
348.097
280.473
348.097
379.679
310.096
289.113
288.751
303.863
368.189
343.978
282.679
343.978
368.188
303.862
288.751
288.391
301.301
361.339
341.205
285.659
341.205
361.337
301.301
288.39
288.039
300.242
356.938
339.573
289.484
339.574
356.936
300.241
288.038
287.732
299.854
353.913
338.945
294.219
338.945
353.911
299.852
287.731
287.535
299.864
351.825
339.312
299.953
339.312
351.823
299.863
287.534
287.552
300.246
350.558
340.76
306.801
340.76
350.556
300.244
287.55
287.915
301.088
350.147
343.402
314.842
343.402
350.144
301.086
287.914
288.799
302.498
350.657
347.333
324.244
347.333
350.654
302.496
288.798
290.25
304.503
352.032
352.415
334.536
352.415
352.029
304.501
290.248
292.473
306.885
353.998
358.326
347.193
358.326
353.996
306.882
292.471
293.252
308.785
355.888
363.285
354.408
363.284
355.886
308.782
293.249
300.016
311.252
359.458
369.21
383.064
369.21
359.455
311.249
300.013
305.914
312.769
364.394
377.229
448.987
377.228
364.391
312.766
305.911
307.381
315.68
369.814
385.909
484.235
385.908
369.811
315.677
307.378
312.638
322.416
377.401
397.449
506.799
397.448
377.398
322.413
312.634
321.51
332.414
387.432
411.61
525.588
411.608
387.428
332.41
321.506
332.826
344.747
399.511
427.654
543.586
427.652
399.507
344.743
332.823
345.855
358.827
413.235
445.067
561.674
445.065
413.232
358.823
345.851
360.162
374.296
428.358
463.614
580.127
463.612
428.355
374.292
360.158
375.409
390.931
444.709
483.236
598.97
483.234
444.706
390.927
375.404
391.122
408.382
462.51
504.543
618.629
504.541
462.507
408.377
391.118
406.933
426.952
481.436
527.361
638.752
527.358
481.434
426.948
406.929
421.018
443.245
506.897
560.541
666.27
560.538
506.894
443.241
421.013
436.61
469.311
535.181
588.661
688.434
588.658
535.178
469.307
436.605
441.45
428.466
669.097
786.772
853.754
786.77
669.092
428.462
441.446
486.013
636.946
1454.62
910.766
1032.29
910.764
1454.61
636.944
486.009
569.323
718.785
718.783
569.318
525.99
733.607
482.703
480.324
588.791
480.323
482.703
733.604
525.986
425.39
852.843
687.524
668.669
705.456
668.667
687.521
852.837
425.387
621.507
615.04
644.813
615.038
621.504
629.621
611.724
638.657
611.722
629.617
642.636
617.128
640.876
617.126
642.632
652.234
623.061
644.202
623.059
652.23
659.748
628.834
647.863
628.832
659.744
666.197
634.364
651.606
634.362
666.192
672.163
639.734
655.374
639.732
672.158
677.902
645.015
659.158
645.013
677.898
683.461
650.182
662.912
650.18
683.456
689.068
655.447
666.801
655.445
689.064
693.787
659.859
670.049
659.857
693.783
702.112
667.797
676.093
667.795
702.108
271.498
253.686
314.01
256.901
260.557
256.901
314.01
253.686
271.498
319.569
349.157
414.987
301.328
275.93
301.328
414.987
349.157
319.569
262.167
288.315
359.278
303.539
278.804
303.539
359.278
288.315
262.167
254.159
261.653
325.207
298.944
278.336
298.944
325.206
261.653
254.159
256.913
254.992
310.097
295.581
277.997
295.581
310.096
254.992
256.913
260.475
255.053
303.863
293.884
278.365
293.884
303.862
255.053
260.475
263.039
256.768
301.302
293.241
279.377
293.241
301.301
256.767
263.038
264.708
258.674
300.242
293.227
280.966
293.227
300.241
258.673
264.708
265.84
260.476
299.853
293.676
283.158
293.676
299.852
260.475
265.84
266.721
262.199
299.864
294.593
286.05
294.593
299.863
262.198
266.72
267.562
263.96
300.246
296.098
289.831
296.098
300.244
263.959
267.561
268.543
265.892
301.088
298.351
294.58
298.351
301.086
265.89
268.542
269.861
268.192
302.498
301.625
301.132
301.624
302.496
268.19
269.86
271.686
271.009
304.503
305.717
307.381
305.717
304.501
271.007
271.685
274.387
274.526
306.884
310.94
324.883
310.94
306.882
274.524
274.385
278.148
278.906
308.784
309.513
300.629
309.512
308.782
278.904
278.146
287.343
286.362
311.251
301.035
412.952
301.034
311.249
286.36
287.341
299.696
295.586
312.767
300.75
590.438
300.749
312.765
295.584
299.694
309.578
304.144
315.679
306.206
604.083
306.204
315.677
304.142
309.575
319.093
313.391
322.415
317.826
605.931
317.824
322.413
313.389
319.09
329.726
324.197
332.412
332.411
607.841
332.409
332.41
324.194
329.723
341.957
336.736
344.746
348.377
610.689
348.375
344.744
336.733
341.954
355.832
350.923
358.826
365.222
614.585
365.219
358.823
350.92
355.829
371.225
366.587
374.294
382.832
619.439
382.829
374.292
366.584
371.222
387.91
383.522
390.929
401.241
625.227
401.238
390.927
383.519
387.907
405.532
401.35
408.38
420.604
631.865
420.601
408.378
401.346
405.529
423.638
419.869
426.951
441.171
639.239
441.169
426.949
419.866
423.635
441.418
436.878
443.244
462.906
645.649
462.904
443.242
436.875
441.415
458.912
455.212
469.309
484.999
649.717
484.998
469.307
455.209
458.908
475.589
450.858
428.464
478.527
603.399
478.526
428.463
450.855
475.585
505.443
473.864
636.947
571
684.587
570.999
636.945
473.861
505.44
550.962
505.72
718.786
627.61
734.451
627.609
718.783
505.717
550.959
587.818
556.158
733.607
726.978
830.299
726.976
733.605
556.156
587.816
714.505
807.706
852.843
762.023
760.009
762.02
852.839
807.703
714.503
277.841
271.498
303.986
245.883
310.313
245.883
303.986
271.498
277.841
314.604
319.569
341.932
271.276
334.72
271.276
341.932
319.569
314.604
255.96
262.167
295.173
265.349
320.527
265.349
295.173
262.167
255.96
258.452
254.159
289.823
265.31
307.891
265.31
289.823
254.159
258.452
267.582
256.913
289.113
267.013
300.656
267.013
289.113
256.913
267.582
273.719
260.475
288.751
268.706
296.858
268.706
288.751
260.475
273.718
276.879
263.039
288.391
270.142
294.93
270.142
288.39
263.038
276.879
278.269
264.708
288.038
271.411
294.096
271.411
288.038
264.708
278.268
278.757
265.84
287.732
272.652
294.067
272.652
287.731
265.84
278.756
278.846
266.721
287.535
274.017
294.784
274.017
287.534
266.72
278.845
278.83
267.562
287.551
275.704
296.426
275.704
287.55
267.561
278.829
278.915
268.543
287.914
277.919
298.909
277.919
287.913
268.542
278.914
279.276
269.861
288.798
281.223
304.238
281.223
288.797
269.859
279.275
280.116
271.686
290.249
285.248
307.218
285.247
290.248
271.685
280.114
281.798
274.387
292.472
293.768
347.313
293.768
292.471
274.385
281.796
284.949
278.148
293.251
287.11
306.317
287.11
293.249
278.146
284.947
291.501
287.343
300.014
267.971
434.071
267.97
300.013
287.341
291.499
300.595
299.696
305.912
258.36
490.84
258.359
305.91
299.694
300.592
309.563
309.577
307.379
255.664
463.151
255.662
307.378
309.575
309.56
318.798
319.092
312.636
263.713
474.57
263.712
312.634
319.09
318.796
329.134
329.726
321.508
274.552
479.489
274.55
321.506
329.723
329.132
341.012
341.956
332.824
285.948
479.531
285.947
332.823
341.954
341.01
354.549
355.832
345.853
297.653
478.094
297.652
345.851
355.829
354.546
369.669
371.225
360.16
309.775
476.802
309.773
360.158
371.222
369.667
386.177
387.91
375.407
322.404
476.262
322.403
375.405
387.907
386.174
403.762
405.532
391.12
335.486
476.632
335.484
391.118
405.529
403.759
422.034
423.638
406.932
349.141
478.269
349.139
406.93
423.635
422.031
440.63
441.418
421.017
362.035
479.924
362.034
421.015
441.415
440.627
459.888
458.911
436.609
378.36
487.325
378.359
436.607
458.909
459.885
481.596
475.588
441.449
381.828
481.418
381.827
441.448
475.586
481.593
513.661
505.442
486.012
441.72
548.399
441.719
486.011
505.44
513.658
556.748
550.961
569.321
529.905
642.094
529.904
569.32
550.959
556.746
599.567
587.818
525.989
479
561.566
478.999
525.988
587.816
599.565
707.849
714.506
425.39
220.48
217.554
220.48
425.389
714.505
707.848
)
;

boundaryField
{
    injectionXMinus
    {
        type            fixedValue;
        value           uniform 400;
    }
    injectionXPlus
    {
        type            fixedValue;
        value           uniform 400;
    }
    injectionYMinus
    {
        type            fixedValue;
        value           uniform 400;
    }
    injectionYPlus
    {
        type            fixedValue;
        value           uniform 400;
    }
    inletXMinus
    {
        type            fixedValue;
        value           uniform 293.15;
    }
    inletXPlus
    {
        type            fixedValue;
        value           uniform 293.15;
    }
    inletYMinus
    {
        type            fixedValue;
        value           uniform 293.15;
    }
    inletYPlus
    {
        type            fixedValue;
        value           uniform 293.15;
    }
    outlet
    {
        type            zeroGradient;
    }
    valve
    {
        type            zeroGradient;
    }
    walls
    {
        type            zeroGradient;
    }
}


// ************************************************************************* //
