/*--------------------------------*- C++ -*----------------------------------*\
  =========                 |
  \\      /  F ield         | OpenFOAM: The Open Source CFD Toolbox
   \\    /   O peration     | Website:  https://openfoam.org
    \\  /    A nd           | Version:  6
     \\/     M anipulation  |
\*---------------------------------------------------------------------------*/
FoamFile
{
    version     2.0;
    format      ascii;
    class       volScalarField;
    location    "0.5";
    object      alpha_gas;
}
// * * * * * * * * * * * * * * * * * * * * * * * * * * * * * * * * * * * * * //

dimensions      [0 0 0 0 0 0 0];

internalField   nonuniform List<scalar> 
3029
(
-8.17726e-15
-8.75593e-15
-9.63679e-15
-6.5474e-15
1.5495e-16
-6.54754e-15
-9.63667e-15
-8.75565e-15
-8.17692e-15
-1.13181e-14
-5.13798e-15
3.28426e-14
6.13106e-14
5.63128e-14
6.1309e-14
3.28397e-14
-5.13873e-15
-1.1318e-14
2.61135e-14
1.21851e-14
-3.76918e-13
-2.23986e-12
-4.82419e-12
-2.23974e-12
-3.76872e-13
1.21925e-14
2.6114e-14
-8.63919e-13
-1.4361e-12
2.67202e-12
3.26231e-11
7.44957e-11
3.26211e-11
2.67133e-12
-1.43613e-12
-8.63902e-13
9.3062e-12
2.00542e-11
-1.22539e-11
-3.45284e-10
-7.97624e-10
-3.4526e-10
-1.22465e-11
2.00539e-11
9.30591e-12
-8.22964e-11
-2.13978e-10
-4.84264e-11
2.82303e-09
6.66903e-09
2.82282e-09
-4.84864e-11
-2.13971e-10
-8.22932e-11
5.26426e-10
1.6711e-09
1.08744e-09
-1.99788e-08
-4.79594e-08
-1.99774e-08
1.08785e-09
1.67103e-09
5.26401e-10
-2.91919e-09
-1.12585e-08
-1.12145e-08
1.25449e-07
3.06537e-07
1.2544e-07
-1.12169e-08
-1.1258e-08
-2.91903e-09
1.32646e-08
6.55291e-08
8.1892e-08
-7.33416e-07
-1.814e-06
-7.33367e-07
8.19051e-08
6.55255e-08
1.32638e-08
-5.57748e-08
-3.5939e-07
-5.383e-07
4.0445e-06
1.01575e-05
4.04425e-06
-5.38367e-07
-3.59368e-07
-5.57709e-08
1.98403e-07
1.86772e-06
3.27229e-06
-2.15825e-05
-5.51732e-05
-2.15812e-05
3.27262e-06
1.8676e-06
1.98386e-07
-6.02359e-07
-9.60228e-06
-1.9766e-05
0.000112235
0.000294848
0.00011223
-1.97674e-05
-9.60172e-06
-6.02294e-07
6.37028e-07
4.77266e-05
0.000118573
-0.000576376
-0.00157474
-0.000576351
0.000118578
4.77241e-05
6.36803e-07
8.74625e-06
-0.000227697
-0.000721491
0.00292215
0.00855437
0.00292205
-0.000721509
-0.000227686
8.74685e-06
-0.000104293
0.000953555
0.00447338
-0.0143823
-0.0498745
-0.0143819
0.00447342
0.000953515
-0.000104294
0.000692654
-0.00250472
-0.028275
0.0558634
0.417304
0.055862
-0.0282748
-0.00250461
0.000692645
-0.00228819
-0.00975955
0.120388
0.685313
0.999122
0.685311
0.120386
-0.00975948
-0.00228814
-0.0082948
0.00859981
0.342513
0.954109
1.02528
0.954107
0.34251
0.00859931
-0.00829469
-0.0121025
0.0342309
0.467534
1.03013
1.0337
1.03013
0.467529
0.0342297
-0.0121023
-0.0127438
0.0545431
0.521307
1.04386
1.03593
1.04386
0.521302
0.0545413
-0.0127436
-0.011222
0.0686296
0.539949
1.03776
1.03581
1.03776
0.539942
0.0686274
-0.0112219
-0.00853209
0.0787111
0.543595
1.02536
1.03436
1.02536
0.543588
0.0787085
-0.00853202
-0.00527445
0.0866668
0.541357
1.01106
1.03186
1.01106
0.54135
0.0866639
-0.00527442
-0.0017627
0.0935927
0.536979
0.996264
1.02842
0.99626
0.536972
0.0935898
-0.00176273
0.00183894
0.100087
0.532011
0.981273
1.02402
0.981269
0.532003
0.100084
0.00183884
0.00543303
0.106529
0.527103
0.965937
1.01842
0.965933
0.527096
0.106526
0.00543286
0.0089548
0.11323
0.522503
0.949685
1.01107
0.949682
0.522497
0.113227
0.00895455
0.0123816
0.120466
0.518177
0.931669
1.00126
0.931665
0.518171
0.120463
0.0123813
0.0157771
0.128165
0.512491
0.908592
0.985645
0.908588
0.512486
0.128162
0.0157767
0.0193018
0.135318
0.503152
0.879914
0.965248
0.879911
0.503148
0.135315
0.0193014
0.0229538
0.137994
0.476514
0.818364
0.906811
0.818362
0.47651
0.137992
0.0229533
0.0235085
0.128113
0.442792
0.779842
0.878043
0.77984
0.442789
0.128112
0.0235079
0.018651
0.092458
0.373191
0.760184
0.905081
0.760183
0.37319
0.0924569
0.0186505
0.00991528
0.0332334
0.193881
0.575844
0.835293
0.575845
0.193881
0.0332328
0.0099148
-8.75593e-15
-8.75479e-15
-8.65802e-15
-5.52019e-15
-9.72919e-16
-5.52007e-15
-8.65774e-15
-8.75443e-15
-8.75564e-15
-5.13784e-15
-2.43842e-15
1.83134e-14
3.25824e-14
2.60298e-14
3.2582e-14
1.83121e-14
-2.43876e-15
-5.13809e-15
1.21842e-14
-3.85613e-15
-2.36315e-13
-1.27997e-12
-2.85634e-12
-1.2799e-12
-2.36287e-13
-3.85086e-15
1.21866e-14
-1.4361e-12
-1.26539e-12
5.11105e-13
1.44711e-11
3.83773e-11
1.447e-11
5.10794e-13
-1.26539e-12
-1.43609e-12
2.00542e-11
1.68349e-11
7.88779e-12
-1.22586e-10
-3.66886e-10
-1.22575e-10
7.89035e-12
1.68346e-11
2.00539e-11
-2.13979e-10
-1.69724e-10
-1.7025e-10
7.75305e-10
2.75965e-09
7.75216e-10
-1.70265e-10
-1.69719e-10
-2.13975e-10
1.67111e-09
1.2309e-09
1.64201e-09
-4.27425e-09
-1.82874e-08
-4.27366e-09
1.64208e-09
1.23086e-09
1.67108e-09
-1.12586e-08
-7.60962e-09
-1.24446e-08
2.03292e-08
1.09315e-07
2.03258e-08
-1.24449e-08
-7.60934e-09
-1.12584e-08
6.55296e-08
3.96357e-08
7.73388e-08
-9.13473e-08
-6.18141e-07
-9.13284e-08
7.73393e-08
3.96341e-08
6.55283e-08
-3.59393e-07
-1.90876e-07
-4.42879e-07
3.70975e-07
3.34463e-06
3.70878e-07
-4.42878e-07
-1.90867e-07
-3.59386e-07
1.86774e-06
8.42775e-07
2.37914e-06
-1.36489e-06
-1.77192e-05
-1.3644e-06
2.37912e-06
8.42734e-07
1.8677e-06
-9.60234e-06
-3.59036e-06
-1.26572e-05
3.42558e-06
9.21294e-05
3.42351e-06
-1.26571e-05
-3.59016e-06
-9.60218e-06
4.77268e-05
1.37903e-05
6.60968e-05
4.61291e-06
-0.000474657
4.6214e-06
6.60957e-05
1.37895e-05
4.7726e-05
-0.000227697
-4.47006e-05
-0.000340698
-0.000179292
0.00240701
-0.000179324
-0.000340691
-4.46983e-05
-0.000227694
0.000953555
6.97681e-05
0.00165987
0.00214661
-0.0116791
0.0021467
0.00165984
6.97629e-05
0.000953542
-0.00250471
0.000482563
-0.00679524
-0.0230037
0.0420433
-0.0230037
-0.00679509
0.00048256
-0.00250468
-0.00975955
-0.00464209
0.00938094
0.22374
0.593525
0.223738
0.00938058
-0.004642
-0.00975953
0.00859973
-0.00764144
0.0762713
0.506276
0.876077
0.506274
0.0762698
-0.00764135
0.00859955
0.0342306
-0.00381354
0.136348
0.644646
0.956136
0.644643
0.136346
-0.00381356
0.0342302
0.0545427
0.00422255
0.174963
0.697152
0.969162
0.697147
0.174959
0.00422236
0.0545421
0.068629
0.0138829
0.198286
0.711524
0.960959
0.711519
0.198281
0.0138825
0.0686283
0.0787103
0.0239446
0.213478
0.710732
0.946143
0.710727
0.213473
0.023944
0.0787094
0.0866656
0.033968
0.224713
0.704251
0.929422
0.704245
0.224708
0.0339672
0.0866646
0.0935913
0.0438357
0.23401
0.695363
0.911876
0.695357
0.234004
0.0438347
0.0935902
0.100085
0.05356
0.242194
0.684936
0.893291
0.68493
0.242189
0.0535588
0.100084
0.106527
0.0632453
0.24958
0.672561
0.872634
0.672556
0.249575
0.063244
0.106525
0.113228
0.0730848
0.256107
0.656535
0.847447
0.65653
0.256102
0.0730834
0.113226
0.120463
0.0836153
0.261702
0.633621
0.81327
0.633617
0.261698
0.0836139
0.120462
0.128161
0.0948809
0.26268
0.59369
0.757118
0.593686
0.262676
0.0948795
0.12816
0.135314
0.109699
0.263966
0.532414
0.671894
0.532411
0.263963
0.109698
0.135313
0.13799
0.119088
0.206859
0.356036
0.438905
0.356035
0.206857
0.119086
0.137989
0.12811
0.12327
0.190003
0.2961
0.361008
0.296099
0.190002
0.123269
0.128109
0.0924549
0.0985084
0.226447
0.450871
0.550798
0.45087
0.226446
0.0985074
0.092454
0.0332318
0.0274165
0.143471
0.506067
0.765669
0.506067
0.14347
0.0274158
0.0332313
-9.63679e-15
-8.65801e-15
-7.46621e-15
-5.18689e-15
-3.08936e-15
-5.18672e-15
-7.46595e-15
-8.6577e-15
-9.63657e-15
3.28431e-14
1.83137e-14
1.13628e-14
1.04878e-14
7.19103e-15
1.04878e-14
1.13624e-14
1.83132e-14
3.28417e-14
-3.76924e-13
-2.3632e-13
-1.82737e-13
-4.94552e-13
-1.08625e-12
-4.94526e-13
-1.82728e-13
-2.36311e-13
-3.76906e-13
2.67212e-12
5.11165e-13
-2.04685e-13
2.84121e-12
9.61109e-12
2.84091e-12
-2.04753e-13
5.11118e-13
2.67189e-12
-1.22548e-11
7.88732e-12
1.1386e-11
-7.75315e-12
-5.94409e-11
-7.75094e-12
1.13865e-11
7.88756e-12
-1.22526e-11
-4.84193e-11
-1.70248e-10
-1.5396e-10
-8.27736e-11
2.10024e-10
-8.27853e-11
-1.53962e-10
-1.70248e-10
-4.84358e-11
1.0874e-09
1.642e-09
1.23281e-09
1.18564e-09
-1.61066e-10
1.18569e-09
1.23282e-09
1.64199e-09
1.0875e-09
-1.12143e-08
-1.24446e-08
-8.10531e-09
-1.02443e-08
-5.66026e-09
-1.02444e-08
-8.1053e-09
-1.24446e-08
-1.12149e-08
8.18909e-08
7.73388e-08
4.39717e-08
6.74346e-08
5.90478e-08
6.74345e-08
4.39715e-08
7.73386e-08
8.18941e-08
-5.38295e-07
-4.4288e-07
-2.17666e-07
-3.98965e-07
-4.41515e-07
-3.98961e-07
-2.17664e-07
-4.42879e-07
-5.38311e-07
3.27227e-06
2.37915e-06
9.81777e-07
2.17922e-06
2.83158e-06
2.17919e-06
9.81769e-07
2.37914e-06
3.27235e-06
-1.9766e-05
-1.26572e-05
-4.2539e-06
-1.16832e-05
-1.74441e-05
-1.1683e-05
-4.25384e-06
-1.26572e-05
-1.97663e-05
0.000118573
6.60969e-05
1.69982e-05
6.11281e-05
0.000104919
6.11271e-05
1.6998e-05
6.60968e-05
0.000118574
-0.000721492
-0.000340698
-6.10629e-05
-0.00031415
-0.000632822
-0.000314144
-6.10618e-05
-0.000340698
-0.000721496
0.00447338
0.00165987
0.000160211
0.00151156
0.00382939
0.00151153
0.000160208
0.00165987
0.00447339
-0.028275
-0.00679523
-4.25182e-05
-0.00592373
-0.0228869
-0.00592361
-4.25114e-05
-0.00679521
-0.0282749
0.120388
0.00938089
-0.00221925
0.00443926
0.0792229
0.00443906
-0.00221924
0.00938083
0.120387
0.342513
0.0762711
0.000833492
0.0633825
0.258836
0.0633814
0.00083343
0.0762708
0.342511
0.467533
0.136348
0.00984396
0.117998
0.362342
0.117997
0.00984376
0.136347
0.467531
0.521306
0.174962
0.0215871
0.153494
0.406264
0.153492
0.0215868
0.174961
0.521304
0.539947
0.198284
0.0341451
0.174978
0.420357
0.174975
0.0341446
0.198284
0.539944
0.543593
0.213476
0.0467597
0.188846
0.421632
0.188842
0.046759
0.213475
0.54359
0.541355
0.22471
0.0592047
0.198765
0.417671
0.198762
0.0592039
0.224709
0.541351
0.536976
0.234007
0.0713826
0.20663
0.411466
0.206626
0.0713817
0.234006
0.536973
0.532007
0.24219
0.0832411
0.212968
0.403709
0.212964
0.08324
0.242189
0.532004
0.527099
0.249576
0.0947711
0.217528
0.393644
0.217525
0.0947699
0.249574
0.527096
0.522499
0.256101
0.105946
0.219324
0.379099
0.219321
0.105945
0.2561
0.522496
0.518171
0.261697
0.11692
0.216058
0.355471
0.216056
0.116919
0.261696
0.518169
0.512485
0.262674
0.125564
0.20223
0.313143
0.202228
0.125563
0.262673
0.512483
0.503146
0.26396
0.136194
0.164471
0.230947
0.16447
0.136193
0.263959
0.503144
0.476507
0.206854
0.0469154
0.0334462
0.0353949
0.0334461
0.0469153
0.206853
0.476505
0.442785
0.189999
0.189999
0.442784
0.373184
0.226442
0.172073
0.298019
0.414788
0.298019
0.172072
0.226441
0.373184
0.193876
0.143466
0.132849
0.355833
0.575613
0.355833
0.132848
0.143466
0.193876
0.117638
0.351592
0.600453
0.351593
0.117637
0.112739
0.341763
0.594294
0.341763
0.112739
0.111686
0.334006
0.5824
0.334006
0.111686
0.111922
0.327703
0.569564
0.327703
0.111922
0.112483
0.321984
0.556643
0.321983
0.112483
0.11304
0.316401
0.543701
0.316401
0.11304
0.113483
0.310786
0.530734
0.310785
0.113483
0.113773
0.305063
0.517707
0.305063
0.113773
0.11392
0.299293
0.504764
0.299292
0.11392
0.113847
0.293152
0.491298
0.293152
0.113847
0.113839
0.288077
0.480117
0.288076
0.11384
0.11303
0.278139
0.459243
0.278138
0.11303
-6.54736e-15
-5.52014e-15
-5.18686e-15
-4.48437e-15
-3.76887e-15
-4.48449e-15
-5.18668e-15
-5.51981e-15
-6.54729e-15
6.1311e-14
3.25827e-14
1.04879e-14
2.01625e-15
3.77521e-16
2.01611e-15
1.04872e-14
3.25818e-14
6.13098e-14
-2.23988e-12
-1.27999e-12
-4.94562e-13
-2.17366e-13
-2.74373e-13
-2.17366e-13
-4.94563e-13
-1.27996e-12
-2.23982e-12
3.26234e-11
1.44714e-11
2.84133e-12
5.38621e-14
5.81813e-13
5.38532e-14
2.84144e-12
1.44712e-11
3.26225e-11
-3.45286e-10
-1.22588e-10
-7.75404e-12
8.49128e-12
5.93654e-12
8.49165e-12
-7.7551e-12
-1.22587e-10
-3.45276e-10
2.82304e-09
7.75321e-10
-8.27692e-11
-1.17173e-10
-1.15848e-10
-1.17178e-10
-8.27633e-11
7.75318e-10
2.82296e-09
-1.99789e-08
-4.27435e-09
1.18563e-09
8.97541e-10
1.00396e-09
8.97584e-10
1.18561e-09
-4.27435e-09
-1.99784e-08
1.2545e-07
2.03298e-08
-1.02443e-08
-5.69727e-09
-7.02655e-09
-5.69755e-09
-1.02443e-08
2.03298e-08
1.25446e-07
-7.33418e-07
-9.13497e-08
6.74347e-08
2.9794e-08
4.09951e-08
2.97955e-08
6.74351e-08
-9.135e-08
-7.33399e-07
4.04451e-06
3.70986e-07
-3.98966e-07
-1.4311e-07
-2.22556e-07
-1.43117e-07
-3.9897e-07
3.70986e-07
4.04441e-06
-2.15825e-05
-1.36493e-06
2.17922e-06
6.20887e-07
1.13288e-06
6.20916e-07
2.17925e-06
-1.36492e-06
-2.1582e-05
0.000112235
3.42567e-06
-1.16832e-05
-2.56651e-06
-5.69072e-06
-2.56662e-06
-1.16834e-05
3.42563e-06
0.000112233
-0.000576374
4.61292e-06
6.11282e-05
9.3284e-06
2.76367e-05
9.32875e-06
6.11289e-05
4.61324e-06
-0.000576364
0.00292214
-0.000179294
-0.00031415
-2.65049e-05
-0.000128267
-2.65057e-05
-0.000314153
-0.000179296
0.0029221
-0.0143822
0.00214662
0.00151156
5.1565e-06
0.000508913
5.15647e-06
0.00151157
0.00214663
-0.014382
0.0558631
-0.0230037
-0.00592371
0.000650381
-0.00105812
0.000650393
-0.00592375
-0.0230037
0.0558623
0.685313
0.22374
0.00443921
-0.00468495
-0.00823329
-0.004685
0.00443925
0.223739
0.685311
0.954109
0.506276
0.0633821
-0.00939164
-0.00126545
-0.00939176
0.0633824
0.506275
0.954108
1.03013
0.644645
0.117998
-0.00793771
0.0119645
-0.00793787
0.117998
0.644644
1.03013
1.04386
0.69715
0.153493
-0.00224735
0.0237379
-0.00224751
0.153494
0.697149
1.04386
1.03776
0.711523
0.174977
0.00526971
0.03281
0.00526958
0.174978
0.711521
1.03776
1.02536
0.71073
0.188843
0.0133544
0.0399787
0.0133543
0.188844
0.710729
1.02536
1.01106
0.704248
0.198762
0.0214952
0.0460079
0.0214951
0.198763
0.704247
1.01106
0.996264
0.695361
0.206626
0.029441
0.0513221
0.0294409
0.206627
0.695359
0.996261
0.981273
0.684933
0.212964
0.0370413
0.0560218
0.0370411
0.212965
0.684931
0.98127
0.965937
0.672558
0.217523
0.0440839
0.0599145
0.0440838
0.217524
0.672556
0.965934
0.949686
0.656531
0.219319
0.0501667
0.062472
0.0501665
0.21932
0.656529
0.949683
0.931669
0.633617
0.216053
0.0543782
0.0625529
0.0543781
0.216053
0.633615
0.931666
0.908592
0.593684
0.202224
0.0551172
0.0581478
0.0551171
0.202225
0.593684
0.90859
0.879914
0.532408
0.164466
0.0455115
0.0441022
0.0455114
0.164466
0.532407
0.879912
0.818363
0.356031
0.0334438
0.0333147
0.0295301
0.0333148
0.033444
0.356031
0.818362
0.77984
0.296096
0.296096
0.77984
0.760181
0.450866
0.298015
0.239864
0.305966
0.239865
0.298015
0.450867
0.760182
0.57584
0.506062
0.355828
0.267422
0.351095
0.267422
0.355828
0.506063
0.575842
0.351588
0.281633
0.370829
0.281634
0.351588
0.341758
0.285155
0.374386
0.285156
0.341759
0.334002
0.284642
0.371872
0.284643
0.334003
0.327699
0.282646
0.367175
0.282647
0.327699
0.32198
0.280036
0.361672
0.280037
0.32198
0.316398
0.277078
0.3558
0.277079
0.316398
0.310782
0.273864
0.349709
0.273865
0.310782
0.30506
0.270414
0.343432
0.270415
0.30506
0.29929
0.266804
0.337075
0.266805
0.29929
0.293149
0.262783
0.330281
0.262784
0.293149
0.288074
0.259487
0.32469
0.259488
0.288073
0.278136
0.252459
0.313589
0.25246
0.278136
1.54945e-16
-9.72892e-16
-3.08932e-15
-3.76885e-15
-3.35852e-15
-3.76862e-15
-3.08924e-15
-9.72743e-16
1.5496e-16
5.63136e-14
2.60302e-14
7.19127e-15
3.77632e-16
-1.13033e-15
3.76614e-16
7.18916e-15
2.60283e-14
5.63138e-14
-4.82419e-12
-2.85634e-12
-1.08626e-12
-2.7438e-13
-1.08336e-13
-2.74395e-13
-1.08628e-12
-2.85632e-12
-4.82414e-12
7.44955e-11
3.83773e-11
9.61128e-12
5.81864e-13
-3.72584e-13
5.81983e-13
9.61171e-12
3.83774e-11
7.44948e-11
-7.97622e-10
-3.66886e-10
-5.94426e-11
5.93643e-12
7.62528e-12
5.93624e-12
-5.9447e-11
-3.66889e-10
-7.97615e-10
6.66901e-09
2.75966e-09
2.10035e-10
-1.1585e-10
-8.23632e-11
-1.15855e-10
2.10067e-10
2.75968e-09
6.66895e-09
-4.79592e-08
-1.82874e-08
-1.61124e-10
1.00398e-09
5.65791e-10
1.00406e-09
-1.61319e-10
-1.82876e-08
-4.79588e-08
3.06536e-07
1.09315e-07
-5.65999e-09
-7.0267e-09
-3.29358e-09
-7.0273e-09
-5.65897e-09
1.09316e-07
3.06534e-07
-1.81399e-06
-6.18141e-07
5.90467e-08
4.09959e-08
1.56522e-08
4.09997e-08
5.90418e-08
-6.18148e-07
-1.81398e-06
1.01575e-05
3.34463e-06
-4.4151e-07
-2.2256e-07
-6.75128e-08
-2.2258e-07
-4.41488e-07
3.34466e-06
1.01575e-05
-5.5173e-05
-1.77192e-05
2.83157e-06
1.13289e-06
2.50447e-07
1.13299e-06
2.83148e-06
-1.77193e-05
-5.51727e-05
0.000294847
9.21292e-05
-1.74441e-05
-5.69077e-06
-8.11596e-07
-5.69123e-06
-1.74437e-05
9.21298e-05
0.000294846
-0.00157474
-0.000474656
0.000104918
2.76369e-05
1.52398e-06
2.76388e-05
0.000104917
-0.000474658
-0.00157473
0.00855436
0.002407
-0.000632822
-0.000128267
4.97617e-06
-0.000128275
-0.000632819
0.00240701
0.00855433
-0.0498744
-0.0116791
0.00382939
0.000508913
-8.52706e-05
0.000508938
0.00382939
-0.0116791
-0.0498743
0.417303
0.042043
-0.0228869
-0.00105812
0.000579242
-0.00105817
-0.0228869
0.042043
0.417302
0.999122
0.593524
0.0792227
-0.00823328
-0.0017377
-0.0082334
0.079223
0.593524
0.999122
1.02528
0.876077
0.258835
-0.0012655
-0.0070876
-0.00126542
0.258836
0.876076
1.02528
1.0337
0.956135
0.362341
0.0119643
-0.0106328
0.0119647
0.362342
0.956135
1.0337
1.03593
0.969162
0.406263
0.0237375
-0.0111587
0.0237383
0.406264
0.969161
1.03593
1.03581
0.96096
0.420356
0.0328094
-0.00947152
0.0328105
0.420358
0.960959
1.03581
1.03436
0.946143
0.42163
0.0399779
-0.00651357
0.0399791
0.421632
0.946142
1.03436
1.03186
0.929423
0.417669
0.0460068
-0.00284891
0.0460082
0.417671
0.929421
1.03186
1.02842
0.911877
0.411465
0.0513208
0.00109574
0.0513221
0.411466
0.911876
1.02842
1.02402
0.893292
0.403707
0.0560204
0.00514994
0.0560217
0.403709
0.893291
1.02402
1.01842
0.872636
0.393642
0.0599129
0.0092363
0.0599141
0.393643
0.872635
1.01842
1.01107
0.847449
0.379097
0.0624703
0.0132865
0.0624714
0.379098
0.847448
1.01107
1.00127
0.813273
0.355468
0.062551
0.0171925
0.0625519
0.355469
0.813272
1.00126
0.98565
0.75712
0.31314
0.0581458
0.0207849
0.0581465
0.313141
0.75712
0.985649
0.965255
0.671895
0.230943
0.0441005
0.0233853
0.0441009
0.230944
0.671896
0.965254
0.906817
0.438904
0.0353921
0.0295293
0.022343
0.0295294
0.0353925
0.438905
0.906817
0.878049
0.361006
0.361007
0.878049
0.905089
0.5508
0.414787
0.305965
0.260505
0.305966
0.414788
0.550801
0.905089
0.8353
0.765676
0.575616
0.351096
0.264203
0.351096
0.575615
0.765676
0.835301
0.600457
0.370829
0.268195
0.370831
0.600456
0.594298
0.374387
0.269721
0.37439
0.594298
0.582403
0.371873
0.269603
0.371875
0.582403
0.569567
0.367176
0.268556
0.367178
0.569567
0.556646
0.361673
0.266983
0.361675
0.556646
0.543705
0.355801
0.265051
0.355804
0.543705
0.530737
0.34971
0.262831
0.349714
0.530737
0.51771
0.343433
0.260339
0.343437
0.517711
0.504767
0.337076
0.257648
0.337081
0.504767
0.491301
0.330282
0.254527
0.330288
0.491302
0.48012
0.324691
0.251994
0.324697
0.480121
0.459246
0.31359
0.246169
0.313597
0.459247
-6.54755e-15
-5.52006e-15
-5.1867e-15
-4.48447e-15
-3.76861e-15
-4.48416e-15
-5.18675e-15
-5.52011e-15
-6.54738e-15
6.13092e-14
3.25822e-14
1.0488e-14
2.01627e-15
3.76695e-16
2.01599e-15
1.04874e-14
3.25815e-14
6.13094e-14
-2.23973e-12
-1.27989e-12
-4.94528e-13
-2.17368e-13
-2.74398e-13
-2.17371e-13
-4.94539e-13
-1.27991e-12
-2.23974e-12
3.26208e-11
1.44699e-11
2.84094e-12
5.38581e-14
5.82003e-13
5.38667e-14
2.84115e-12
1.44703e-11
3.2621e-11
-3.45257e-10
-1.22574e-10
-7.75118e-12
8.49177e-12
5.93622e-12
8.49196e-12
-7.75296e-12
-1.22578e-10
-3.45259e-10
2.8228e-09
7.75212e-10
-8.27841e-11
-1.1718e-10
-1.15856e-10
-1.17183e-10
-8.27742e-11
7.75247e-10
2.82282e-09
-1.99772e-08
-4.27364e-09
1.18569e-09
8.97599e-10
1.00407e-09
8.97629e-10
1.18565e-09
-4.27389e-09
-1.99774e-08
1.25439e-07
2.03256e-08
-1.02445e-08
-5.69763e-09
-7.02735e-09
-5.69784e-09
-1.02444e-08
2.03271e-08
1.2544e-07
-7.33361e-07
-9.13278e-08
6.74346e-08
2.97959e-08
4.09999e-08
2.9797e-08
6.74348e-08
-9.13358e-08
-7.33367e-07
4.04422e-06
3.70875e-07
-3.98962e-07
-1.43119e-07
-2.22581e-07
-1.43124e-07
-3.98966e-07
3.70915e-07
4.04425e-06
-2.15811e-05
-1.36438e-06
2.17919e-06
6.20922e-07
1.13299e-06
6.20944e-07
2.17922e-06
-1.36457e-06
-2.15813e-05
0.000112229
3.42342e-06
-1.1683e-05
-2.56664e-06
-5.69122e-06
-2.56673e-06
-1.16832e-05
3.42423e-06
0.00011223
-0.000576349
4.62184e-06
6.11272e-05
9.32878e-06
2.76388e-05
9.32909e-06
6.11281e-05
4.61867e-06
-0.000576351
0.00292204
-0.000179326
-0.000314144
-2.65057e-05
-0.000128274
-2.65065e-05
-0.000314149
-0.000179315
0.00292204
-0.0143818
0.00214671
0.00151153
5.15629e-06
0.000508935
5.15722e-06
0.00151155
0.00214668
-0.0143818
0.0558617
-0.0230038
-0.00592361
0.000650392
-0.00105816
0.000650399
-0.00592368
-0.0230038
0.0558616
0.685311
0.223738
0.00443904
-0.00468498
-0.00823338
-0.00468502
0.00443914
0.223739
0.68531
0.954107
0.506273
0.0633814
-0.00939172
-0.00126547
-0.0093918
0.0633819
0.506274
0.954107
1.03013
0.644643
0.117997
-0.00793783
0.0119646
-0.00793792
0.117998
0.644643
1.03013
1.04386
0.697148
0.153492
-0.00224751
0.0237379
-0.00224756
0.153493
0.697148
1.04386
1.03776
0.71152
0.174975
0.00526952
0.0328099
0.0052695
0.174977
0.711521
1.03776
1.02536
0.710728
0.188842
0.0133541
0.0399784
0.0133541
0.188844
0.710729
1.02536
1.01106
0.704247
0.198762
0.0214949
0.0460072
0.021495
0.198764
0.704248
1.01106
0.996263
0.69536
0.206626
0.0294407
0.051321
0.0294408
0.206628
0.695361
0.996262
0.981273
0.684934
0.212965
0.0370409
0.0560204
0.037041
0.212967
0.684934
0.981272
0.965938
0.67256
0.217525
0.0440834
0.0599127
0.0440835
0.217527
0.67256
0.965937
0.949688
0.656535
0.219322
0.0501662
0.0624699
0.0501662
0.219323
0.656535
0.949687
0.931672
0.633623
0.216056
0.0543776
0.0625503
0.0543777
0.216058
0.633623
0.931671
0.908597
0.593692
0.202228
0.0551163
0.0581449
0.0551164
0.20223
0.593692
0.908596
0.87992
0.532416
0.164469
0.0455102
0.0440994
0.0455103
0.16447
0.532417
0.87992
0.818371
0.356037
0.0334441
0.0333138
0.0295287
0.0333139
0.0334444
0.356038
0.818371
0.77985
0.296101
0.296102
0.779851
0.760194
0.450875
0.298022
0.239868
0.305965
0.239868
0.298023
0.450876
0.760194
0.575856
0.506077
0.355839
0.267427
0.351096
0.267426
0.355838
0.506076
0.575856
0.351599
0.281639
0.370831
0.281639
0.351599
0.34177
0.285161
0.37439
0.285162
0.341769
0.334013
0.284648
0.371875
0.284648
0.334013
0.327709
0.282652
0.367179
0.282653
0.327709
0.32199
0.280041
0.361676
0.280043
0.321989
0.316407
0.277084
0.355804
0.277085
0.316407
0.310791
0.27387
0.349714
0.273872
0.310791
0.305069
0.270419
0.343437
0.270422
0.305069
0.299298
0.266809
0.337082
0.266812
0.299298
0.293157
0.262788
0.330288
0.262791
0.293157
0.288081
0.259492
0.324698
0.259495
0.288081
0.278143
0.252464
0.313597
0.252468
0.278144
-9.63664e-15
-8.65771e-15
-7.46593e-15
-5.18668e-15
-3.08922e-15
-5.18673e-15
-7.46601e-15
-8.65775e-15
-9.63649e-15
3.28396e-14
1.8312e-14
1.13624e-14
1.04874e-14
7.18936e-15
1.04875e-14
1.13621e-14
1.8312e-14
3.284e-14
-3.76868e-13
-2.36284e-13
-1.82726e-13
-4.94561e-13
-1.08629e-12
-4.94545e-13
-1.82723e-13
-2.36289e-13
-3.76874e-13
2.67126e-12
5.10767e-13
-2.04774e-13
2.84141e-12
9.61177e-12
2.84121e-12
-2.04794e-13
5.10849e-13
2.67138e-12
-1.22457e-11
7.8906e-12
1.13866e-11
-7.75483e-12
-5.94475e-11
-7.75335e-12
1.13867e-11
7.88981e-12
-1.22471e-11
-4.84922e-11
-1.70267e-10
-1.53963e-10
-8.27649e-11
2.1007e-10
-8.27725e-11
-1.53964e-10
-1.70262e-10
-4.84807e-11
1.08788e-09
1.64209e-09
1.23282e-09
1.18562e-09
-1.6133e-10
1.18564e-09
1.23282e-09
1.64206e-09
1.0878e-09
-1.12171e-08
-1.24449e-08
-8.10532e-09
-1.02443e-08
-5.65893e-09
-1.02444e-08
-8.10532e-09
-1.24448e-08
-1.12166e-08
8.19061e-08
7.73396e-08
4.39716e-08
6.74351e-08
5.90417e-08
6.74348e-08
4.39715e-08
7.73392e-08
8.19034e-08
-5.38371e-07
-4.4288e-07
-2.17665e-07
-3.9897e-07
-4.41489e-07
-3.98966e-07
-2.17664e-07
-4.42879e-07
-5.38358e-07
3.27264e-06
2.37913e-06
9.81769e-07
2.17924e-06
2.83148e-06
2.17922e-06
9.81767e-07
2.37913e-06
3.27257e-06
-1.97674e-05
-1.26571e-05
-4.25384e-06
-1.16833e-05
-1.74438e-05
-1.16832e-05
-4.25383e-06
-1.26571e-05
-1.97672e-05
0.000118579
6.60958e-05
1.69979e-05
6.11288e-05
0.000104917
6.1128e-05
1.69978e-05
6.60961e-05
0.000118578
-0.00072151
-0.000340692
-6.10618e-05
-0.000314152
-0.000632819
-0.000314148
-6.10615e-05
-0.000340694
-0.000721507
0.00447343
0.00165984
0.000160207
0.00151157
0.00382939
0.00151155
0.000160206
0.00165985
0.00447342
-0.0282749
-0.00679509
-4.25103e-05
-0.00592374
-0.0228869
-0.00592366
-4.25082e-05
-0.00679513
-0.0282749
0.120386
0.00938056
-0.00221924
0.00443922
0.0792228
0.00443908
-0.00221924
0.00938065
0.120386
0.34251
0.0762698
0.000833427
0.0633823
0.258836
0.0633816
0.000833407
0.0762702
0.34251
0.46753
0.136346
0.00984377
0.117998
0.362342
0.117997
0.0098437
0.136347
0.46753
0.521302
0.17496
0.0215868
0.153494
0.406263
0.153492
0.0215867
0.174961
0.521303
0.539943
0.198282
0.0341447
0.174978
0.420357
0.174976
0.0341445
0.198283
0.539943
0.54359
0.213474
0.0467591
0.188845
0.421631
0.188842
0.0467589
0.213475
0.54359
0.541352
0.224709
0.0592042
0.198764
0.41767
0.198761
0.0592039
0.22471
0.541353
0.536975
0.234006
0.0713821
0.206628
0.411465
0.206625
0.0713818
0.234007
0.536975
0.532007
0.242191
0.0832407
0.212965
0.403707
0.212963
0.0832404
0.242192
0.532007
0.527101
0.249578
0.0947709
0.217525
0.393641
0.217523
0.0947705
0.249579
0.527101
0.522502
0.256105
0.105946
0.219321
0.379096
0.219319
0.105945
0.256106
0.522503
0.518178
0.261702
0.11692
0.216054
0.355466
0.216053
0.11692
0.261702
0.518178
0.512493
0.26268
0.125565
0.202226
0.313138
0.202225
0.125565
0.262681
0.512493
0.503156
0.263967
0.136194
0.164467
0.230941
0.164466
0.136194
0.263968
0.503156
0.476519
0.20686
0.0469142
0.0334426
0.0353903
0.0334426
0.0469143
0.206861
0.476519
0.442798
0.190005
0.190005
0.442798
0.373198
0.22645
0.172076
0.298019
0.414787
0.298019
0.172076
0.22645
0.373198
0.193886
0.143474
0.132852
0.355834
0.575616
0.355834
0.132851
0.143474
0.193886
0.117641
0.351595
0.600458
0.351594
0.117641
0.112743
0.341766
0.594299
0.341765
0.112742
0.111689
0.334009
0.582405
0.334008
0.111689
0.111926
0.327706
0.569568
0.327705
0.111925
0.112487
0.321986
0.556648
0.321985
0.112486
0.113044
0.316404
0.543706
0.316403
0.113043
0.113487
0.310788
0.530739
0.310787
0.113486
0.113777
0.305066
0.517712
0.305065
0.113776
0.113924
0.299295
0.504769
0.299295
0.113923
0.113851
0.293155
0.491303
0.293154
0.11385
0.113843
0.288079
0.480122
0.288078
0.113842
0.113033
0.278141
0.459248
0.278141
0.113032
-8.75562e-15
-8.7544e-15
-8.65769e-15
-5.51983e-15
-9.72725e-16
-5.52009e-15
-8.65775e-15
-8.7544e-15
-8.75549e-15
-5.13882e-15
-2.4389e-15
1.8313e-14
3.25821e-14
2.60287e-14
3.25817e-14
1.83122e-14
-2.43913e-15
-5.13864e-15
1.21937e-14
-3.84916e-15
-2.36306e-13
-1.27995e-12
-2.85633e-12
-1.27992e-12
-2.36292e-13
-3.84782e-15
1.21929e-14
-1.43614e-12
-1.26541e-12
5.11057e-13
1.4471e-11
3.83775e-11
1.44704e-11
5.10874e-13
-1.26541e-12
-1.43613e-12
2.00541e-11
1.68347e-11
7.8881e-12
-1.22586e-10
-3.6689e-10
-1.22579e-10
7.88963e-12
1.68346e-11
2.0054e-11
-2.13973e-10
-1.6972e-10
-1.70251e-10
7.75306e-10
2.75969e-09
7.75255e-10
-1.70261e-10
-1.69719e-10
-2.13973e-10
1.67104e-09
1.23086e-09
1.64201e-09
-4.27427e-09
-1.82876e-08
-4.27393e-09
1.64206e-09
1.23085e-09
1.67104e-09
-1.1258e-08
-7.60933e-09
-1.24446e-08
2.03294e-08
1.09316e-07
2.03273e-08
-1.24448e-08
-7.60925e-09
-1.1258e-08
6.55257e-08
3.96341e-08
7.73388e-08
-9.13476e-08
-6.18148e-07
-9.13365e-08
7.73392e-08
3.96336e-08
6.55261e-08
-3.59369e-07
-1.90867e-07
-4.42879e-07
3.70974e-07
3.34466e-06
3.70917e-07
-4.42879e-07
-1.90864e-07
-3.59373e-07
1.86761e-06
8.42731e-07
2.37914e-06
-1.36486e-06
-1.77193e-05
-1.36457e-06
2.37913e-06
8.42719e-07
1.86763e-06
-9.60175e-06
-3.59015e-06
-1.26572e-05
3.42538e-06
9.21297e-05
3.42416e-06
-1.26571e-05
-3.59009e-06
-9.60184e-06
4.77242e-05
1.37895e-05
6.60968e-05
4.61422e-06
-0.000474657
4.61923e-06
6.60961e-05
1.37893e-05
4.77246e-05
-0.000227687
-4.46981e-05
-0.000340698
-0.0001793
0.002407
-0.000179318
-0.000340694
-4.46974e-05
-0.000227688
0.000953516
6.97621e-05
0.00165987
0.00214664
-0.0116791
0.0021467
0.00165984
6.97605e-05
0.000953522
-0.00250461
0.000482563
-0.00679521
-0.0230037
0.0420428
-0.0230038
-0.00679511
0.000482562
-0.00250462
-0.00975949
-0.00464201
0.0093808
0.223739
0.593524
0.223738
0.00938058
-0.00464198
-0.0097595
0.0085993
-0.00764138
0.0762708
0.506275
0.876076
0.506273
0.0762699
-0.00764134
0.00859934
0.0342297
-0.0038136
0.136348
0.644644
0.956135
0.644642
0.136346
-0.0038136
0.0342298
0.0545415
0.00422234
0.174962
0.69715
0.969161
0.697147
0.17496
0.00422228
0.0545417
0.0686277
0.0138825
0.198284
0.711522
0.960959
0.711519
0.198282
0.0138824
0.068628
0.078709
0.0239442
0.213476
0.71073
0.946142
0.710727
0.213473
0.023944
0.0787093
0.0866646
0.0339674
0.224711
0.704249
0.929422
0.704245
0.224708
0.0339672
0.0866649
0.0935906
0.0438351
0.234008
0.695361
0.911877
0.695358
0.234005
0.0438348
0.093591
0.100085
0.0535595
0.242192
0.684934
0.893292
0.684931
0.242189
0.0535591
0.100085
0.106527
0.0632449
0.249578
0.67256
0.872636
0.672556
0.249575
0.0632445
0.106527
0.113229
0.0730847
0.256104
0.656534
0.847449
0.656531
0.256102
0.0730843
0.113229
0.120465
0.0836156
0.2617
0.63362
0.813272
0.633618
0.261698
0.0836152
0.120466
0.128165
0.0948816
0.262678
0.593689
0.75712
0.593687
0.262676
0.0948812
0.128165
0.135318
0.109701
0.263964
0.532412
0.671895
0.532411
0.263963
0.109701
0.135318
0.137995
0.119089
0.206857
0.356034
0.438903
0.356033
0.206857
0.119089
0.137995
0.128115
0.123272
0.190002
0.296098
0.361005
0.296098
0.190002
0.123272
0.128115
0.0924594
0.0985107
0.226447
0.450871
0.5508
0.450871
0.226446
0.0985105
0.0924594
0.0332338
0.0274171
0.14347
0.506072
0.765679
0.506071
0.14347
0.027417
0.0332338
-8.17689e-15
-8.7556e-15
-9.63656e-15
-6.54732e-15
1.54973e-16
-6.54736e-15
-9.63649e-15
-8.75549e-15
-8.17676e-15
-1.13181e-14
-5.13829e-15
3.28414e-14
6.13101e-14
5.63146e-14
6.13098e-14
3.28403e-14
-5.1386e-15
-1.13181e-14
2.61145e-14
1.21885e-14
-3.76899e-13
-2.23981e-12
-4.82416e-12
-2.23975e-12
-3.76877e-13
1.21926e-14
2.61145e-14
-8.63906e-13
-1.43611e-12
2.67178e-12
3.26223e-11
7.4495e-11
3.26212e-11
2.67142e-12
-1.43613e-12
-8.63897e-13
9.30593e-12
2.0054e-11
-1.22514e-11
-3.45274e-10
-7.97617e-10
-3.45262e-10
-1.22474e-11
2.0054e-11
9.30579e-12
-8.22931e-11
-2.13975e-10
-4.84457e-11
2.82294e-09
6.66896e-09
2.82284e-09
-4.84784e-11
-2.13973e-10
-8.22917e-11
5.264e-10