/*--------------------------------*- C++ -*----------------------------------*\
  =========                 |
  \\      /  F ield         | OpenFOAM: The Open Source CFD Toolbox
   \\    /   O peration     | Website:  https://openfoam.org
    \\  /    A nd           | Version:  6
     \\/     M anipulation  |
\*---------------------------------------------------------------------------*/
FoamFile
{
    version     2.0;
    format      ascii;
    class       volScalarField;
    location    "0.5";
    object      alpha_exh;
}
// * * * * * * * * * * * * * * * * * * * * * * * * * * * * * * * * * * * * * //

dimensions      [0 0 0 0 0 0 0];

internalField   nonuniform List<scalar> 
3029
(
1.4563e-06
2.29987e-06
5.63658e-05
-0.000415762
0.00448811
-0.000415248
5.6591e-05
2.4123e-06
7.83131e-07
1.34563e-06
3.78639e-06
5.36025e-05
-0.00040316
0.00503028
-0.000402318
5.39996e-05
4.26629e-06
1.25955e-06
3.65773e-06
4.93079e-06
9.31757e-05
-0.00035968
0.00704913
-0.000358246
9.44976e-05
6.40878e-06
3.7846e-06
1.72272e-05
1.85815e-05
0.000176465
-4.12773e-05
0.011118
-3.90838e-05
0.000179154
2.15203e-05
1.76072e-05
8.49637e-05
0.000114788
0.000370631
0.00106611
0.0182758
0.0010691
0.000374922
0.000119678
8.59329e-05
0.000320093
0.00045375
0.000895996
0.00405008
0.0300064
0.0040538
0.000901942
0.00046077
0.000321819
0.0010597
0.00148923
0.00256183
0.0108797
0.048129
0.010884
0.00256943
0.00149866
0.00106261
0.0033082
0.00447946
0.00734311
0.0243961
0.0745314
0.0244007
0.0073522
0.00449113
0.00331228
0.00922852
0.0119231
0.0185044
0.0477934
0.110794
0.047798
0.0185147
0.0119371
0.00923419
0.0221501
0.0273812
0.0399399
0.0837389
0.157769
0.0837432
0.0399511
0.0273969
0.022157
0.045816
0.0545476
0.0749736
0.133623
0.215399
0.133626
0.0749852
0.0545649
0.0458246
0.0831521
0.096022
0.125365
0.196968
0.281985
0.19697
0.125377
0.09604
0.0831617
0.135123
0.152261
0.190571
0.273006
0.358202
0.273007
0.190582
0.152279
0.135134
0.200106
0.221786
0.26979
0.355676
0.429621
0.355676
0.2698
0.221803
0.200117
0.274076
0.299036
0.353026
0.464152
0.568802
0.464152
0.353034
0.299052
0.274088
0.349883
0.382957
0.480793
0.544937
0.344179
0.544937
0.480798
0.382971
0.349894
0.42547
0.472525
0.48081
0.153416
-0.0739139
0.153418
0.480814
0.472537
0.425481
0.497972
0.536297
0.3901
-0.0133279
-0.0600302
-0.0133267
0.390104
0.536307
0.497983
0.562223
0.579511
0.336906
-0.059847
-0.057745
-0.0598457
0.336911
0.57952
0.562233
0.617593
0.614394
0.321836
-0.065169
-0.0552713
-0.0651673
0.321841
0.614402
0.617602
0.665667
0.645964
0.32761
-0.0563201
-0.0519981
-0.056318
0.327617
0.645971
0.665675
0.707935
0.675124
0.342309
-0.0425536
-0.0479882
-0.0425511
0.342316
0.675131
0.707942
0.745311
0.701658
0.359938
-0.0271278
-0.0433516
-0.0271249
0.359945
0.701664
0.745317
0.778297
0.725266
0.377849
-0.0111571
-0.0381275
-0.011154
0.377857
0.725271
0.778302
0.807204
0.745767
0.394896
0.00507419
-0.0322355
0.00507751
0.394903
0.745771
0.807208
0.832281
0.763062
0.410592
0.0216935
-0.0253961
0.0216969
0.410599
0.763066
0.832285
0.853774
0.777077
0.424775
0.0392207
-0.0170224
0.0392241
0.424782
0.77708
0.853777
0.871919
0.787751
0.437512
0.0584298
-0.00640905
0.058433
0.437518
0.787754
0.871922
0.886914
0.795336
0.450403
0.0824976
0.00976194
0.0825006
0.450408
0.795338
0.886916
0.898916
0.800956
0.465488
0.1117
0.0302851
0.111702
0.465493
0.800958
0.898918
0.908263
0.80844
0.496606
0.173376
0.0884524
0.173378
0.496609
0.808441
0.908265
0.918925
0.825726
0.532827
0.212406
0.117755
0.212408
0.532829
0.825728
0.918927
0.934998
0.867491
0.602524
0.231846
0.0917741
0.231847
0.602525
0.867492
0.934999
0.960845
0.938673
0.784625
0.414906
0.162067
0.414905
0.784625
0.938673
0.960846
2.26867e-06
-4.89619e-05
0.000227127
-0.000301826
0.00880066
-0.00029993
0.000228711
-4.78892e-05
2.08445e-06
3.80301e-06
-4.14389e-05
0.000244114
-0.000218129
0.01008
-0.000215723
0.00024633
-3.95354e-05
4.3179e-06
4.99508e-06
-2.57073e-05
0.00031813
0.00013312
0.0137791
0.000136237
0.000321468
-2.25261e-05
6.68838e-06
1.87053e-05
5.089e-05
0.000476634
0.00130767
0.0209617
0.00131163
0.000481558
5.59905e-05
2.21115e-05
0.000114996
0.000308032
0.000905974
0.00445301
0.0330666
0.0044578
0.000912691
0.00031551
0.0001206
0.000454066
0.000998403
0.00227936
0.0114894
0.0517462
0.0114948
0.00228797
0.00100854
0.000462163
0.00148967
0.00286192
0.00623851
0.0250195
0.0785868
0.0250253
0.00624887
0.0028748
0.00150049
0.00448004
0.00765876
0.0155787
0.0478599
0.114794
0.0478658
0.0155906
0.00767429
0.00449351
0.0119238
0.0183532
0.0338019
0.0823291
0.160908
0.0823348
0.0338149
0.0183711
0.0119399
0.027382
0.0385908
0.0641667
0.129585
0.216596
0.12959
0.0641803
0.0386106
0.0274003
0.0545485
0.0716307
0.108659
0.189259
0.280647
0.189263
0.108673
0.0716517
0.0545687
0.0960231
0.119242
0.167438
0.259517
0.350792
0.25952
0.167451
0.119264
0.0960443
0.152262
0.181055
0.238586
0.337397
0.425095
0.337399
0.238598
0.181076
0.152284
0.221787
0.254633
0.319333
0.419827
0.497169
0.419828
0.319344
0.254653
0.221808
0.299037
0.335385
0.402572
0.49939
0.578634
0.49939
0.402581
0.335404
0.299057
0.382958
0.416966
0.494235
0.607046
0.620054
0.607046
0.494242
0.416983
0.382976
0.472527
0.498946
0.565498
0.495013
0.239197
0.495014
0.565503
0.49896
0.472543
0.536299
0.571236
0.582964
0.322254
0.0450985
0.322256
0.582968
0.571247
0.536313
0.579513
0.627451
0.586026
0.237425
-0.00668315
0.237427
0.586031
0.627461
0.579525
0.614395
0.670983
0.59316
0.210997
-0.00942128
0.211
0.593165
0.670991
0.614406
0.645965
0.706158
0.605285
0.211983
0.00411845
0.211987
0.60529
0.706165
0.645975
0.675126
0.735543
0.619423
0.223915
0.0228946
0.223919
0.619428
0.73555
0.675134
0.701659
0.760392
0.633349
0.239582
0.0431127
0.239587
0.633354
0.760397
0.701667
0.725267
0.781312
0.645929
0.256431
0.0638709
0.256436
0.645935
0.781317
0.725274
0.745769
0.798648
0.656802
0.273849
0.0853933
0.273854
0.656807
0.798652
0.745774
0.763065
0.812615
0.665978
0.292343
0.108681
0.292348
0.665983
0.812618
0.763069
0.777079
0.823337
0.673801
0.313659
0.136139
0.313663
0.673806
0.82334
0.777083
0.787754
0.830599
0.680602
0.34103
0.172134
0.341033
0.680606
0.830602
0.787757
0.795339
0.834692
0.690352
0.384566
0.229544
0.384569
0.690355
0.834694
0.795342
0.800959
0.832891
0.697942
0.448352
0.315207
0.448355
0.697944
0.832893
0.800962
0.808443
0.834923
0.765891
0.628797
0.549897
0.628798
0.765892
0.834924
0.808445
0.82573
0.837042
0.786674
0.690737
0.629042
0.690738
0.786675
0.837042
0.825732
0.867494
0.864281
0.749081
0.53808
0.442379
0.53808
0.749081
0.864281
0.867496
0.938674
0.944024
0.833534
0.483603
0.230806
0.483602
0.833534
0.944025
0.938675
5.63443e-05
0.000227344
7.46765e-05
0.00104774
0.0326546
0.00105113
7.77249e-05
0.000229133
5.63781e-05
5.36917e-05
0.00024452
5.62072e-05
0.00212357
0.0371559
0.00212753
6.01336e-05
0.000247197
5.428e-05
9.34993e-05
0.000318801
5.26778e-05
0.00528905
0.0478566
0.0052936
5.77749e-05
0.000322882
9.54657e-05
0.000177136
0.000477683
0.000474397
0.0121575
0.0659408
0.0121625
0.000480944
0.000483756
0.000181158
0.000371747
0.000907488
0.00241405
0.0249029
0.0923191
0.0249082
0.0024221
0.000915804
0.000378068
0.000897624
0.00228139
0.00791656
0.0458874
0.127521
0.0458926
0.00792599
0.00229212
0.00090647
0.00256401
0.00624105
0.0198708
0.0770933
0.171544
0.0770982
0.0198813
0.00625406
0.00257532
0.00734583
0.0155817
0.041417
0.119604
0.223792
0.119608
0.041428
0.0155968
0.00735958
0.0185076
0.0338054
0.0750964
0.173301
0.283093
0.173304
0.0751075
0.0338221
0.0185235
0.0399436
0.0641704
0.122123
0.236854
0.347763
0.236857
0.122133
0.0641882
0.0399613
0.0749777
0.108663
0.182017
0.307917
0.415723
0.307918
0.182027
0.108681
0.0749966
0.12537
0.167442
0.252688
0.383484
0.484663
0.383484
0.252697
0.16746
0.125389
0.190575
0.23859
0.330746
0.460074
0.551872
0.460073
0.330753
0.238607
0.190595
0.269795
0.319337
0.412134
0.534655
0.61565
0.534654
0.41214
0.319352
0.269813
0.35303
0.402576
0.491808
0.60108
0.666637
0.601079
0.491812
0.402589
0.353047
0.480797
0.494238
0.565177
0.664982
0.732398
0.66498
0.565181
0.49425
0.480812
0.480814
0.565501
0.629926
0.705245
0.683821
0.705243
0.629929
0.565511
0.480825
0.390103
0.582966
0.680182
0.697535
0.563732
0.697534
0.680185
0.582974
0.390112
0.336909
0.586029
0.716701
0.684677
0.498998
0.684677
0.716703
0.586036
0.336917
0.321838
0.593162
0.744193
0.681514
0.479998
0.681515
0.744194
0.593168
0.321845
0.327613
0.605288
0.765878
0.686034
0.483997
0.686036
0.765879
0.605294
0.32762
0.342312
0.619426
0.783312
0.693932
0.497277
0.693934
0.783313
0.619431
0.342319
0.35994
0.633352
0.797206
0.702604
0.513564
0.702606
0.797207
0.633357
0.359947
0.377852
0.645932
0.808017
0.710755
0.530425
0.710758
0.808018
0.645937
0.377859
0.3949
0.656806
0.816128
0.718219
0.547433
0.718222
0.81613
0.65681
0.394905
0.410596
0.665982
0.821895
0.725534
0.565501
0.725536
0.821896
0.665986
0.410601
0.42478
0.673806
0.825716
0.733963
0.586943
0.733965
0.825717
0.67381
0.424784
0.437517
0.680608
0.827862
0.746106
0.616519
0.746108
0.827863
0.680611
0.437522
0.450409
0.690358
0.831037
0.767849
0.664066
0.76785
0.831038
0.69036
0.450413
0.465495
0.697948
0.831706
0.813221
0.751233
0.813221
0.831706
0.69795
0.465497
0.496613
0.765896
0.938117
0.955238
0.954672
0.955238
0.938116
0.765897
0.496615
0.532834
0.786678
0.786679
0.532835
0.602531
0.749086
0.803942
0.687697
0.57735
0.687697
0.803942
0.749086
0.602532
0.78463
0.833539
0.843686
0.630599
0.418562
0.630599
0.843686
0.833539
0.78463
0.859866
0.635027
0.394102
0.635027
0.859865
0.866028
0.645376
0.400435
0.645376
0.866027
0.868428
0.65384
0.412546
0.65384
0.868427
0.869514
0.660894
0.425621
0.660894
0.869514
0.870214
0.667349
0.438786
0.667349
0.870213
0.870846
0.673632
0.451967
0.673632
0.870845
0.871517
0.67991
0.465166
0.67991
0.871517
0.872272
0.686255
0.478415
0.686255
0.872271
0.873101
0.69261
0.491572
0.69261
0.8731
0.874097
0.699305
0.505244
0.699305
0.874096
0.87491
0.704866
0.516609
0.704866
0.874909
0.87691
0.715534
0.537782
0.715534
0.876909
-0.000415537
-0.000300479
0.0010494
0.0499656
0.170567
0.049969
0.00105431
-0.000297312
-0.000415162
-0.000402312
-0.000216144
0.00212564
0.056095
0.180908
0.0560986
0.00213133
-0.000211941
-0.000400467
-0.000358117
0.000135907
0.0052916
0.0702357
0.202353
0.0702392
0.00529816
0.000141482
-0.0003548
-3.88342e-05
0.00131143
0.0121606
0.0934949
0.23404
0.0934982
0.012168
0.00131873
-3.36237e-05
0.00106956
0.00445786
0.0249065
0.126496
0.274347
0.126499
0.0249145
0.00446692
0.00107666
0.0040546
0.0114953
0.0458913
0.169251
0.321487
0.169253
0.0458997
0.0115061
0.00406375
0.0108853
0.0250264
0.0770976
0.221004
0.373684
0.221005
0.0771058
0.0250385
0.0108962
0.0244027
0.0478676
0.119608
0.280285
0.429243
0.280285
0.119616
0.0478808
0.0244154
0.0478009
0.0823374
0.173306
0.345099
0.486557
0.345098
0.173312
0.0823512
0.0478148
0.083747
0.129593
0.236859
0.413157
0.544109
0.413155
0.236864
0.129607
0.083762
0.133631
0.189267
0.307921
0.482087
0.600465
0.482085
0.307925
0.189281
0.133646
0.196976
0.259526
0.383487
0.54959
0.65429
0.549586
0.38349
0.259538
0.196991
0.273014
0.337405
0.460077
0.613473
0.704265
0.61347
0.460079
0.337416
0.273029
0.355683
0.419834
0.534658
0.671733
0.749335
0.67173
0.534659
0.419844
0.355697
0.464159
0.499396
0.601083
0.722324
0.787324
0.72232
0.601083
0.499405
0.464171
0.544943
0.607051
0.664984
0.762648
0.818713
0.762645
0.664984
0.607059
0.544952
0.153419
0.495017
0.705247
0.797616
0.845823
0.797613
0.705248
0.495023
0.153425
-0.0133269
0.322257
0.697537
0.826398
0.857112
0.826395
0.697538
0.322262
-0.0133232
-0.0598464
0.237427
0.684679
0.84784
0.862332
0.847837
0.684679
0.237431
-0.0598431
-0.0651686
0.210999
0.681516
0.863905
0.867911
0.863902
0.681516
0.211003
-0.065165
-0.0563197
0.211985
0.686036
0.876369
0.87449
0.876368
0.686036
0.211989
-0.0563159
-0.0425534
0.223917
0.693935
0.886169
0.881177
0.886167
0.693935
0.223921
-0.0425493
-0.0271276
0.239585
0.702607
0.893784
0.887298
0.893782
0.702607
0.239588
-0.0271234
-0.0111571
0.256434
0.710759
0.89956
0.892565
0.899559
0.710759
0.256437
-0.0111529
0.00507413
0.273852
0.718223
0.903843
0.897043
0.903842
0.718224
0.273855
0.00507817
0.0216933
0.292347
0.725539
0.907076
0.9011
0.907075
0.725539
0.292349
0.0216971
0.0392204
0.313663
0.733968
0.909917
0.905457
0.909916
0.733968
0.313665
0.0392239
0.0584294
0.341034
0.746111
0.913579
0.911477
0.913578
0.746111
0.341036
0.0584325
0.0824973
0.384571
0.767854
0.920056
0.921463
0.920055
0.767854
0.384573
0.0824999
0.1117
0.448358
0.813226
0.936902
0.941109
0.936902
0.813226
0.448359
0.111702
0.173377
0.628802
0.955241
0.958068
0.962783
0.958068
0.95524
0.628802
0.173378
0.212407
0.690742
0.690741
0.212408
0.231848
0.538084
0.687701
0.746508
0.685259
0.746508
0.6877
0.538083
0.231848
0.41491
0.483607
0.630603
0.719237
0.64067
0.719236
0.630603
0.483607
0.414909
0.635032
0.705698
0.621418
0.705696
0.635031
0.64538
0.702946
0.618306
0.702944
0.645379
0.653844
0.704237
0.621257
0.704236
0.653843
0.660898
0.706984
0.626377
0.706983
0.660897
0.667352
0.710305
0.632284
0.710304
0.667351
0.673636
0.71393
0.638539
0.713929
0.673635
0.679913
0.717769
0.644991
0.717768
0.679913
0.686258
0.721805
0.651609
0.721804
0.686258
0.692613
0.72596
0.658286
0.725959
0.692612
0.699308
0.730497
0.665386
0.730496
0.699307
0.704869
0.734243
0.671245
0.734242
0.704868
0.715536
0.74194
0.682755
0.741938
0.715536
0.00449005
0.00880519
0.0326602
0.17057
0.376291
0.17057
0.0326649
0.00880884
0.00449038
0.00503356
0.0100856
0.0371621
0.18091
0.386897
0.180911
0.0371672
0.0100903
0.00503601
0.00705366
0.0137859
0.0478633
0.202355
0.407435
0.202356
0.0478688
0.0137916
0.0070576
0.0111238
0.0209697
0.0659479
0.234042
0.43596
0.234042
0.0659536
0.0209766
0.0111293
0.0182829
0.0330757
0.0923264
0.274348
0.470194
0.274348
0.0923321
0.0330837
0.0182897
0.0300147
0.0517562
0.127528
0.321488
0.508231
0.321487
0.127534
0.0517651
0.0300229
0.0481382
0.0785974
0.171551
0.373685
0.548624
0.373683
0.171556
0.078607
0.0481476
0.0745414
0.114805
0.223799
0.429243
0.590272
0.429241
0.223803
0.114815
0.0745519
0.110804
0.160919
0.283099
0.486557
0.632268
0.486554
0.283102
0.160929
0.110816
0.157779
0.216607
0.347769
0.544109
0.673795
0.544106
0.347772
0.216617
0.157791
0.21541
0.280657
0.415727
0.600464
0.714078
0.600461
0.415729
0.280667
0.215422
0.281995
0.350801
0.484667
0.65429
0.752372
0.654286
0.484668
0.35081
0.282006
0.358211
0.425102
0.551875
0.704264
0.787956
0.70426
0.551875
0.425111
0.358222
0.429629
0.497176
0.615653
0.749334
0.820127
0.74933
0.615652
0.497183
0.429639
0.568809
0.57864
0.666639
0.787323
0.848302
0.787319
0.666639
0.578647
0.568818
0.344183
0.620059
0.7324
0.818712
0.870992
0.818708
0.732399
0.620064
0.34419
-0.0739131
0.2392
0.683823
0.845822
0.890728
0.845819
0.683824
0.239204
-0.07391
-0.06003
0.0450996
0.563734
0.857112
0.909051
0.857108
0.563734
0.045103
-0.0600277
-0.0577449
-0.00668256
0.499
0.862332
0.923865
0.862328
0.499
-0.00667935
-0.0577426
-0.0552714
-0.00942099
0.48
0.867911
0.934901
0.867907
0.479999
-0.00941782
-0.0552689
-0.0519984
0.00411844
0.483999
0.87449
0.943005
0.874487
0.483998
0.00412158
-0.0519956
-0.0479889
0.0228943
0.497279
0.881178
0.949018
0.881174
0.497277
0.0228973
-0.0479859
-0.0433527
0.0431119
0.513566
0.8873
0.953461
0.887296
0.513564
0.0431148
-0.0433496
-0.0381292
0.0638698
0.530428
0.892567
0.956747
0.892564
0.530426
0.0638724
-0.038126
-0.0322379
0.0853917
0.547435
0.897044
0.959095
0.897041
0.547433
0.0853941
-0.0322348
-0.0253992
0.108679
0.565503
0.901102
0.960659
0.901099
0.565501
0.108682
-0.0253963
-0.0170264
0.136136
0.586946
0.905459
0.961605
0.905457
0.586944
0.136138
-0.0170237
-0.006414
0.172131
0.616522
0.911478
0.962168
0.911477
0.61652
0.172133
-0.00641152
0.00975617
0.229542
0.66407
0.921465
0.962708
0.921464
0.664068
0.229543
0.00975833
0.0302788
0.315206
0.751237
0.941111
0.964287
0.94111
0.751236
0.315206
0.0302802
0.0884464
0.549897
0.954675
0.962784
0.970815
0.962783
0.954674
0.549897
0.088447
0.117749
0.629043
0.629042
0.117749
0.0917669
0.442377
0.57735
0.685259
0.732016
0.685258
0.577349
0.442377
0.0917668
0.16206
0.2308
0.418559
0.640669
0.7284
0.640668
0.41856
0.2308
0.162059
0.394099
0.621417
0.724746
0.621416
0.394099
0.400432
0.618305
0.723632
0.618303
0.400432
0.412542
0.621256
0.724168
0.621255
0.412543
0.425618
0.626376
0.72562
0.626374
0.425618
0.438782
0.632283
0.727576
0.632281
0.438783
0.451963
0.638537
0.729868
0.638535
0.451964
0.465163
0.64499
0.732426
0.644987
0.465163
0.478412
0.651608
0.735235
0.651604
0.478413
0.491569
0.658285
0.738223
0.65828
0.491569
0.505242
0.665384
0.741625
0.66538
0.505242
0.516606
0.671244
0.744405
0.671238
0.516606
0.53778
0.682754
0.750601
0.682748
0.537779
-0.000414135
-0.000296595
0.00105614
0.0499729
0.170571
0.0499741
0.00105846
-0.000295174
-0.000414378
-0.000400485
-0.000211609
0.0021332
0.0561027
0.180911
0.056104
0.00213586
-0.000209616
-0.000399692
-0.00035531
0.000141473
0.00529998
0.0702433
0.202356
0.0702446
0.00530307
0.000144194
-0.000353757
-3.47618e-05
0.00131824
0.0121696
0.093502
0.234042
0.093503
0.0121732
0.00132192
-3.21695e-05
0.00107492
0.00446585
0.0249158
0.126502
0.274348
0.126503
0.0249198
0.00447053
0.00107851
0.00406108
0.0115042
0.0459005
0.169256
0.321486
0.169256
0.0459046
0.0115099
0.00406591
0.0108926
0.0250357
0.0771059
0.221006
0.373682
0.221006
0.0771101
0.0250423
0.0108985
0.0244103
0.0478768
0.119615
0.280286
0.42924
0.280285
0.119619
0.0478841
0.0244175
0.0478083
0.0823459
0.173311
0.345098
0.486553
0.345096
0.173314
0.0823536
0.0478165
0.0837538
0.1296
0.236862
0.413155
0.544104
0.413152
0.236865
0.129608
0.0837629
0.133637
0.189273
0.307923
0.482084
0.60046
0.482081
0.307925
0.189281
0.133646
0.19698
0.259529
0.383487
0.549585
0.654285
0.549582
0.383489
0.259537
0.19699
0.273017
0.337407
0.460076
0.613468
0.704259
0.613465
0.460076
0.337414
0.273027
0.355684
0.419835
0.534656
0.671728
0.749329
0.671724
0.534656
0.419842
0.355694
0.464158
0.499396
0.601081
0.722319
0.787318
0.722314
0.60108
0.499402
0.464168
0.544942
0.60705
0.664982
0.762644
0.818708
0.762639
0.664981
0.607056
0.54495
0.15342
0.495017
0.705245
0.797613
0.845818
0.797608
0.705245
0.495022
0.153424
-0.0133261
0.322258
0.697536
0.826395
0.857108
0.82639
0.697535
0.322261
-0.0133231
-0.0598456
0.237428
0.684678
0.847837
0.862328
0.847833
0.684678
0.237431
-0.059843
-0.0651676
0.211001
0.681516
0.863902
0.867907
0.863898
0.681514
0.211003
-0.0651649
-0.0563186
0.211987
0.686036
0.876367
0.874487
0.876364
0.686034
0.211989
-0.0563159
-0.0425523
0.223919
0.693935
0.886167
0.881175
0.886164
0.693933
0.22392
-0.0425495
-0.0271268
0.239586
0.702607
0.893782
0.887297
0.893779
0.702604
0.239587
-0.027124
-0.0111566
0.256434
0.710758
0.899559
0.892565
0.899557
0.710755
0.256435
-0.0111539
0.00507391
0.273851
0.718222
0.903842
0.897042
0.90384
0.718219
0.273852
0.00507646
0.0216922
0.292344
0.725536
0.907075
0.9011
0.907073
0.725533
0.292345
0.0216945
0.0392182
0.313658
0.733965
0.909916
0.905458
0.909915
0.733962
0.313659
0.0392204
0.0584258
0.341028
0.746107
0.913578
0.911478
0.913577
0.746105
0.341028
0.0584278
0.0824922
0.384564
0.76785
0.920056
0.921466
0.920055
0.767848
0.384564
0.0824939
0.111693
0.448349
0.813222
0.936903
0.941111
0.936902
0.81322
0.448349
0.111694
0.173369
0.628795
0.95524
0.958069
0.962784
0.958069
0.955239
0.628794
0.173369
0.212398
0.690736
0.690734
0.212397
0.231836
0.538075
0.687693
0.746504
0.685258
0.746504
0.687692
0.538074
0.231836
0.414894
0.483592
0.630592
0.719231
0.640668
0.719233
0.630594
0.483594
0.414895
0.63502
0.705691
0.621416
0.705693
0.635022
0.645369
0.702939
0.618302
0.70294
0.64537
0.653833
0.704231
0.621255
0.704232
0.653834
0.660887
0.706978
0.626374
0.706979
0.660888
0.667342
0.710299
0.632281
0.7103
0.667343
0.673626
0.713925
0.638535
0.713925
0.673627
0.679904
0.717764
0.644986
0.717763
0.679905
0.686249
0.721799
0.651603
0.721798
0.68625
0.692604
0.725955
0.65828
0.725954
0.692605
0.699299
0.730492
0.665379
0.73049
0.6993
0.704861
0.734237
0.671238
0.734236
0.704862
0.715529
0.741934
0.682748
0.741932
0.71553
5.68824e-05
0.000230462
8.0525e-05
0.00105761
0.0326667
0.00105872
8.15585e-05
0.000231018
5.67432e-05
5.44395e-05
0.000248458
6.33524e-05
0.0021349
0.037169
0.00213613
6.46184e-05
0.000249353
5.46206e-05
9.57837e-05
0.000324417
6.16624e-05
0.00530202
0.0478706
0.00530338
6.32778e-05
0.000325767
9.63491e-05
0.000181651
0.00048569
0.000485696
0.0121721
0.0659554
0.0121735
0.000487774
0.000487699
0.000182902
0.000378795
0.000918188
0.00242776
0.0249187
0.0923337
0.0249202
0.00243035
0.000920972
0.000380693
0.000907223
0.00229484
0.00793243
0.0459038
0.127535
0.0459051
0.00793551
0.00229847
0.000910026
0.00257606
0.00625698
0.0198882
0.0771096
0.171557
0.0771106
0.0198917
0.00626147
0.00257964
0.00736002
0.0155997
0.0414352
0.119619
0.223804
0.119619
0.0414389
0.015605
0.00736458
0.0185235
0.0338246
0.0751145
0.173315
0.283103
0.173315
0.0751182
0.0338305
0.0185288
0.0399605
0.0641902
0.12214
0.236866
0.347772
0.236866
0.122143
0.0641966
0.0399667
0.0749949
0.108682
0.182033
0.307926
0.415729
0.307925
0.182036
0.108689
0.0750016
0.125386
0.16746
0.252702
0.383491
0.484668
0.383489
0.252704
0.167467
0.125394
0.190591
0.238606
0.330757
0.460079
0.551875
0.460077
0.330759
0.238612
0.190598
0.269808
0.319351
0.412143
0.534659
0.615652
0.534656
0.412144
0.319357
0.269816
0.353041
0.402587
0.491815
0.601083
0.666638
0.60108
0.491815
0.402592
0.353048
0.480804
0.494246
0.565183
0.664984
0.732399
0.664981
0.565183
0.494252
0.480811
0.480819
0.565506
0.62993
0.705247
0.683823
0.705245
0.62993
0.565511
0.480825
0.390106
0.582971
0.680185
0.697537
0.563734
0.697535
0.680185
0.582975
0.390111
0.336912
0.586033
0.716703
0.684679
0.499
0.684678
0.716703
0.586036
0.336917
0.321842
0.593166
0.744195
0.681515
0.479999
0.681515
0.744195
0.593169
0.321846
0.327617
0.605291
0.76588
0.686036
0.483998
0.686035
0.765879
0.605293
0.32762
0.342315
0.619428
0.783313
0.693935
0.497278
0.693934
0.783313
0.61943
0.342318
0.359943
0.633354
0.797207
0.702607
0.513566
0.702606
0.797207
0.633355
0.359946
0.377854
0.645933
0.808018
0.710759
0.530427
0.710758
0.808017
0.645934
0.377856
0.3949
0.656805
0.816129
0.718223
0.547435
0.718222
0.816128
0.656806
0.394902
0.410594
0.66598
0.821895
0.725538
0.565503
0.725537
0.821894
0.66598
0.410596
0.424776
0.673803
0.825716
0.733967
0.586947
0.733967
0.825715
0.673803
0.424778
0.437512
0.680602
0.827861
0.74611
0.616523
0.74611
0.827861
0.680603
0.437513
0.450401
0.690351
0.831036
0.767853
0.664071
0.767852
0.831035
0.690351
0.450402
0.465484
0.69794
0.831704
0.813225
0.751239
0.813224
0.831703
0.697939
0.465485
0.496601
0.765889
0.938117
0.955242
0.954676
0.955241
0.938117
0.765889
0.496601
0.532821
0.786672
0.786671
0.532821
0.602517
0.749076
0.803937
0.687696
0.57735
0.687697
0.803938
0.749077
0.602518
0.78462
0.83353
0.843682
0.630597
0.418559
0.630598
0.843683
0.833531
0.784621
0.859861
0.635024
0.394098
0.635026
0.859863
0.866023
0.645372
0.40043
0.645374
0.866025
0.868423
0.653836
0.412541
0.653838
0.868425
0.86951
0.66089
0.425617
0.660892
0.869512
0.87021
0.667345
0.438782
0.667347
0.870212
0.870841
0.673629
0.451963
0.673631
0.870843
0.871513
0.679907
0.465162
0.679909
0.871515
0.872267
0.686252
0.478411
0.686254
0.872269
0.873096
0.692607
0.491568
0.692609
0.873098
0.874092
0.699302
0.50524
0.699304
0.874094
0.874905
0.704863
0.516605
0.704865
0.874907
0.876906
0.715531
0.537778
0.715533
0.876908
2.72149e-06
-4.6721e-05
0.00023052
-0.00029562
0.0088101
-0.000295043
0.000231023
-4.63755e-05
2.5821e-06
4.69662e-06
-3.81656e-05
0.000248742
-0.000210119
0.0100916
-0.00020948
0.000249356
-3.75636e-05
4.8801e-06
7.42236e-06
-2.06294e-05
0.000324919
0.000143605
0.013793
0.000144367
0.000325771
-1.97301e-05
7.91592e-06
2.34016e-05
5.87486e-05
0.00048651
0.00132124
0.0209781
0.00132215
0.000487703
6.01538e-05
2.44747e-05
0.0001226
0.000319324
0.000919367
0.0044698
0.0330852
0.00447084
0.000920978
0.000321303
0.00012418
0.000464796
0.00101346
0.00229646
0.0115092
0.0517667
0.0115103
0.00229848
0.00101613
0.000467164
0.00150377
0.00288077
0.00625907
0.0250418
0.0786085
0.0250428
0.00626148
0.00288409
0.00150673
0.00449722
0.00768115
0.0156023
0.0478839
0.114816
0.0478846
0.015605
0.00768514
0.00450105
0.011944
0.0183786
0.0338277
0.082354
0.16093
0.0823542
0.0338306
0.0183832
0.0119484
0.0274044
0.0386184
0.0641938
0.129609
0.216618
0.129609
0.0641966
0.0386234
0.0274096
0.0545726
0.0716596
0.108686
0.189282
0.280668
0.189282
0.108689
0.0716648
0.0545783
0.0960477
0.119271
0.167464
0.259539
0.350811
0.259538
0.167467
0.119277
0.0960539
0.152287
0.181083
0.23861
0.337417
0.425111
0.337415
0.238612
0.181088
0.152293
0.22181
0.254659
0.319355
0.419844
0.497183
0.419842
0.319357
0.254664
0.221816
0.299058
0.335409
0.402591
0.499404
0.578646
0.499402
0.402592
0.335413
0.299064
0.382976
0.416986
0.494251
0.607058
0.620064
0.607056
0.494252
0.41699
0.382982
0.472542
0.498963
0.565511
0.495022
0.239204
0.495022
0.565511
0.498966
0.472547
0.53631
0.571249
0.582974
0.322261
0.0451027
0.322262
0.582975
0.571252
0.536316
0.579523
0.627462
0.586035
0.23743
-0.00667976
0.237432
0.586036
0.627465
0.579527
0.614404
0.670992
0.593167
0.211002
-0.0094183
0.211004
0.593169
0.670995
0.614408
0.645972
0.706166
0.605293
0.211987
0.00412103
0.21199
0.605294
0.706168
0.645976
0.675131
0.73555
0.61943
0.223919
0.0228967
0.223921
0.619431
0.735552
0.675134
0.701664
0.760397
0.633355
0.239586
0.0431141
0.239589
0.633357
0.760399
0.701666
0.72527
0.781316
0.645935
0.256434
0.0638717
0.256437
0.645936
0.781317
0.725273
0.745771
0.798651
0.656807
0.273852
0.0853935
0.273855
0.656809
0.798653
0.745773
0.763065
0.812617
0.665982
0.292345
0.108681
0.292348
0.665984
0.812618
0.763067
0.777079
0.823338
0.673805
0.31366
0.136137
0.313663
0.673807
0.823339
0.77708
0.787752
0.8306
0.680606
0.341031
0.172132
0.341033
0.680607
0.8306
0.787753
0.795336
0.834692
0.690355
0.384567
0.229542
0.384569
0.690356
0.834693
0.795337
0.800955
0.83289
0.697944
0.448354
0.315206
0.448354
0.697944
0.83289
0.800956
0.808438
0.834921
0.765893
0.628799
0.549898
0.628799
0.765893
0.834921
0.808439
0.825724
0.837039
0.786675
0.690739
0.629044
0.690739
0.786675
0.837039
0.825725
0.867489
0.864278
0.74908
0.538079
0.442377
0.538079
0.749081
0.864278
0.86749
0.938672
0.944023
0.833534
0.483598
0.230797
0.483599
0.833535
0.944024
0.938672
9.46985e-07
2.44013e-06
5.66407e-05
-0.000414544
0.00449111
-0.000414334
5.67437e-05
2.58221e-06
9.38482e-07
1.45098e-06
4.6656e-06
5.45108e-05
-0.000399874
0.00503672
-0.000399655
5.46197e-05
4.87984e-06
1.65774e-06
4.34292e-06
7.45651e-06
9.6085e-05
-0.000353994
0.00705836
-0.000353701
9.63471e-05
7.91515e-06
4.95044e-06
1.87652e-05
2.35268e-05
0.000182336
-3.25128e-05
0.0111301
-3.20818e-05
0.000182895
2.44716e-05
2.01683e-05
8.78364e-05
0.000122777
0.000379849
0.00107808
0.0182906
0.00107864
0.000380681
0.000124174
8.99767e-05
0.000324524
0.000465119
0.000908818
0.00406542
0.0300238
0.00406609
0.000910004
0.000467153
0.000327768
0.00106611
0.00150418
0.00257817
0.0108981
0.0481485
0.0108988
0.00257961
0.00150671
0.00107015
0.00331649
0.00449784
0.00736281
0.0244172
0.0745528
0.0244178
0.00736455
0.00450103
0.00332166
0.00923901
0.0119448
0.018527
0.0478165
0.110816
0.0478169
0.0185288
0.0119484
0.00924485
0.0221623
0.0274054
0.0399648
0.0837633
0.157792
0.0837634
0.0399667
0.0274096
0.0221691
0.04583
0.0545739
0.0749999
0.133647
0.215422
0.133647
0.0750016
0.0545782
0.0458372
0.0831671
0.0960493
0.125392
0.196992
0.282007
0.196991
0.125394
0.0960539
0.0831749
0.135139
0.152288
0.190597
0.273029
0.358222
0.273027
0.190598
0.152293
0.135147
0.200121
0.221812
0.269815
0.355696
0.429639
0.355694
0.269816
0.221816
0.200129
0.274092
0.29906
0.353048
0.46417
0.568818
0.464168
0.353048
0.299064
0.274099
0.349898
0.382979
0.480812
0.544952
0.34419
0.54495
0.480811
0.382982
0.349904
0.425484
0.472545
0.480825
0.153424
-0.0739105
0.153424
0.480825
0.472547
0.425489
0.497985
0.536314
0.390111
-0.0133238
-0.0600281
-0.0133233
0.390112
0.536315
0.49799
0.562234
0.579526
0.336916
-0.0598438
-0.0577431
-0.0598432
0.336917
0.579528
0.562239
0.617603
0.614406
0.321844
-0.0651659
-0.0552694
-0.0651651
0.321846
0.614408
0.617607
0.665676
0.645974
0.327618
-0.056317
-0.0519963
-0.0563161
0.327621
0.645976
0.665679
0.707942
0.675133
0.342316
-0.0425507
-0.0479867
-0.0425496
0.342319
0.675135
0.707945
0.745317
0.701666
0.359944
-0.0271253
-0.0433505
-0.027124
0.359947
0.701667
0.74532
0.778302
0.725272
0.377855
-0.0111552
-0.0381271
-0.0111538
0.377858
0.725274
0.778304
0.807208
0.745772
0.394901
0.00507521
-0.0322362
0.00507672
0.394904
0.745774
0.80721
0.832284
0.763067
0.410596
0.0216934
-0.025398
0.021695
0.410599
0.763068
0.832286
0.853776
0.777081
0.424778
0.0392194
-0.0170257
0.039221
0.424781
0.777082
0.853777
0.871921
0.787754
0.437514
0.0584271
-0.00641404
0.0584286
0.437517
0.787755
0.871922
0.886916
0.795338
0.450404
0.0824937
0.00975548
0.082495
0.450407
0.795339
0.886916
0.898917
0.800958
0.465489
0.111695
0.0302774
0.111696
0.46549
0.800958
0.898918
0.908264
0.808441
0.496606
0.173371
0.0884446
0.173372
0.496607
0.808441
0.908265
0.918926
0.825727
0.532826
0.2124
0.117747
0.212401
0.532827
0.825728
0.918926
0.934999
0.867492
0.602523
0.231839
0.091764
0.23184
0.602523
0.867492
0.934999
0.960845
0.938673
0.784624
0.414899
0.162056
0.4149
0.784625
0.938673
0.960845
)
;

boundaryField
{
    injectionXMinus
    {
        type            calculated;
        value           nonuniform List<scalar> 2(-0.0747884 -0.0347493);
    }
    injectionXPlus
    {
        type            calculated;
        value           nonuniform List<scalar> 2(-0.0747916 -0.0347513);
    }
    injectionYMinus
    {
        type            calculated;
        value           nonuniform List<scalar> 2(-0.0747879 -0.0347489);
    }
    injectionYPlus
    {
        type            calculated;
        value           nonuniform List<scalar> 2(-0.0747908 -0.0347511);
    }
    inletXMinus
    {