/*--------------------------------*- C++ -*----------------------------------*\
  =========                 |
  \\      /  F ield         | OpenFOAM: The Open Source CFD Toolbox
   \\    /   O peration     | Website:  https://openfoam.org
    \\  /    A nd           | Version:  6
     \\/     M anipulation  |
\*---------------------------------------------------------------------------*/
FoamFile
{
    version     2.0;
    format      ascii;
    class       volScalarField;
    location    "0.5";
    object      alpha_air;
}
// * * * * * * * * * * * * * * * * * * * * * * * * * * * * * * * * * * * * * //

dimensions      [0 0 0 0 0 0 0];

internalField   nonuniform List<scalar> 
3029
(
0.999999
0.999998
0.999944
1.00042
0.995512
1.00042
0.999943
0.999998
0.999999
0.999999
0.999996
0.999946
1.0004
0.99497
1.0004
0.999946
0.999996
0.999999
0.999996
0.999995
0.999907
1.00036
0.992951
1.00036
0.999906
0.999994
0.999996
0.999983
0.999981
0.999824
1.00004
0.988882
1.00004
0.999821
0.999978
0.999982
0.999915
0.999885
0.999629
0.998934
0.981724
0.998931
0.999625
0.99988
0.999914
0.99968
0.999546
0.999104
0.99595
0.969994
0.995946
0.999098
0.999539
0.999678
0.99894
0.998511
0.997438
0.98912
0.951871
0.989116
0.997431
0.998501
0.998937
0.996692
0.995521
0.992657
0.975604
0.925468
0.975599
0.992648
0.995509
0.996688
0.990771
0.988077
0.981496
0.952207
0.889208
0.952203
0.981485
0.988063
0.990766
0.97785
0.972619
0.960061
0.916257
0.842221
0.916253
0.960049
0.972603
0.977843
0.954184
0.945451
0.925023
0.866399
0.784656
0.866396
0.925011
0.945433
0.954175
0.916849
0.903988
0.874654
0.80292
0.71772
0.802918
0.874643
0.90397
0.916839
0.864876
0.847691
0.80931
0.72757
0.643373
0.727569
0.8093
0.847673
0.864865
0.799886
0.778442
0.730931
0.641402
0.561825
0.641402
0.730921
0.778424
0.799874
0.726028
0.700011
0.642501
0.55023
0.481072
0.55023
0.642493
0.699994
0.726017
0.649424
0.619548
0.547482
0.399199
0.238516
0.399201
0.547477
0.619533
0.649413
0.576819
0.537234
0.398801
0.16127
0.0747916
0.161272
0.398799
0.537222
0.576807
0.510322
0.455103
0.267387
0.0592184
0.0347513
0.0592193
0.267386
0.455094
0.510312
0.44988
0.386258
0.19556
0.0297139
0.0240473
0.0297147
0.19556
0.38625
0.44987
0.39515
0.331063
0.156857
0.02131
0.0193446
0.0213106
0.156857
0.331056
0.395141
0.345555
0.285407
0.132441
0.0185603
0.0161919
0.0185609
0.132441
0.285402
0.345547
0.300597
0.246165
0.114096
0.0171954
0.0136276
0.017196
0.114096
0.246161
0.30059
0.259963
0.211675
0.0987051
0.0160631
0.011493
0.0160637
0.0987051
0.211672
0.259957
0.223465
0.181142
0.0851713
0.0148935
0.00970812
0.014894
0.0851713
0.181139
0.22346
0.190957
0.154146
0.0730933
0.013653
0.00821785
0.0136535
0.0730933
0.154145
0.190953
0.162286
0.130409
0.062305
0.0123695
0.00697699
0.0123699
0.062305
0.130408
0.162282
0.137271
0.109693
0.0527215
0.0110938
0.00595506
0.0110942
0.0527216
0.109692
0.137268
0.115699
0.0917833
0.0443109
0.00990162
0.00514775
0.00990196
0.044311
0.091783
0.115697
0.0973089
0.0764994
0.0371057
0.0089107
0.0045935
0.008911
0.0371058
0.0764994
0.0973069
0.0817819
0.0637267
0.0313594
0.00838638
0.00446644
0.00838666
0.0313596
0.0637269
0.0817802
0.0687829
0.0535664
0.0268802
0.00825985
0.00473638
0.00826013
0.0268805
0.0535667
0.0687815
0.0575667
0.0461602
0.0243813
0.00775223
0.00420204
0.00775246
0.0243817
0.0461606
0.0575654
0.0463511
0.0400509
0.0242847
0.00796992
0.00314446
0.00797008
0.0242851
0.0400511
0.0463501
0.02924
0.0280941
0.0214936
0.00924985
0.00263996
0.00925003
0.0214939
0.0280941
0.0292392
0.999998
1.00005
0.999773
1.0003
0.991199
1.0003
0.999771
1.00005
0.999998
0.999996
1.00004
0.999756
1.00022
0.98992
1.00022
0.999754
1.00004
0.999996
0.999995
1.00003
0.999682
0.999867
0.986221
0.999864
0.999679
1.00002
0.999993
0.999981
0.999949
0.999523
0.998692
0.979038
0.998688
0.999518
0.999944
0.999978
0.999885
0.999692
0.999094
0.995547
0.966933
0.995542
0.999087
0.999684
0.999879
0.999546
0.999002
0.997721
0.988511
0.948254
0.988505
0.997712
0.998991
0.999538
0.99851
0.997138
0.993761
0.974981
0.921413
0.974975
0.993751
0.997125
0.9985
0.99552
0.992341
0.984421
0.95214
0.885206
0.952134
0.984409
0.992326
0.995507
0.988076
0.981647
0.966198
0.917671
0.839093
0.917665
0.966185
0.981629
0.98806
0.972618
0.961409
0.935834
0.870415
0.7834
0.87041
0.93582
0.96139
0.9726
0.94545
0.928368
0.891339
0.810742
0.71937
0.810738
0.891325
0.928347
0.945429
0.903987
0.880761
0.832575
0.740479
0.649116
0.740476
0.832562
0.88074
0.903965
0.84769
0.818931
0.761348
0.662598
0.57538
0.662596
0.761336
0.81891
0.847668
0.778441
0.745412
0.681008
0.580352
0.500424
0.580351
0.680997
0.745392
0.77842
0.70001
0.664545
0.595768
0.498463
0.433045
0.498463
0.595759
0.664526
0.699989
0.619547
0.582551
0.51256
0.415957
0.337903
0.415958
0.512553
0.582535
0.619528
0.537233
0.505696
0.425121
0.281247
0.167278
0.281248
0.425117
0.505682
0.537216
0.455102
0.436406
0.340765
0.171469
0.0788244
0.171471
0.340762
0.436394
0.455088
0.386256
0.376363
0.277625
0.117929
0.0505476
0.11793
0.277623
0.376353
0.386244
0.331062
0.324795
0.231877
0.0918516
0.0402591
0.0918528
0.231876
0.324786
0.331052
0.285406
0.279959
0.196429
0.0764927
0.0349221
0.0764937
0.196428
0.279952
0.285397
0.246164
0.240512
0.167099
0.0653529
0.0309625
0.0653538
0.167098
0.240506
0.246157
0.211675
0.20564
0.141939
0.056167
0.0274656
0.0561679
0.141938
0.205636
0.211669
0.181141
0.174853
0.120061
0.0482055
0.0242529
0.0482063
0.120061
0.174849
0.181136
0.154146
0.147792
0.101004
0.0412148
0.0213159
0.0412155
0.101004
0.147789
0.154142
0.130409
0.12414
0.0844424
0.0350956
0.0186842
0.0350961
0.0844424
0.124138
0.130405
0.109693
0.103578
0.0700922
0.0298064
0.0164142
0.0298069
0.0700923
0.103577
0.10969
0.0917834
0.0857856
0.0576955
0.0253492
0.0145957
0.0253495
0.0576958
0.0857843
0.0917812
0.0764995
0.0704269
0.0469681
0.0217444
0.0133382
0.0217447
0.0469685
0.070426
0.0764978
0.0637269
0.0574094
0.0380923
0.0192342
0.0128989
0.0192345
0.0380928
0.057409
0.0637256
0.0535666
0.0459895
0.0272499
0.015167
0.0111985
0.0151675
0.0272506
0.0459895
0.0535655
0.0461604
0.0396884
0.0233224
0.0131625
0.00995029
0.013163
0.0233234
0.0396886
0.0461595
0.040051
0.0372111
0.0244725
0.0110496
0.00682261
0.0110499
0.0244732
0.0372113
0.0400503
0.0280941
0.0285593
0.0229953
0.0103307
0.00352425
0.0103311
0.0229958
0.0285593
0.0280936
0.999944
0.999773
0.999925
0.998952
0.967345
0.998949
0.999922
0.999771
0.999944
0.999946
0.999755
0.999944
0.997876
0.962844
0.997872
0.99994
0.999753
0.999946
0.999907
0.999681
0.999947
0.994711
0.952143
0.994706
0.999942
0.999677
0.999905
0.999823
0.999522
0.999526
0.987843
0.934059
0.987837
0.999519
0.999516
0.999819
0.999628
0.999093
0.997586
0.975097
0.907681
0.975092
0.997578
0.999084
0.999622
0.999102
0.997719
0.992083
0.954113
0.872479
0.954107
0.992074
0.997708
0.999094
0.997436
0.993759
0.980129
0.922907
0.828456
0.922902
0.980119
0.993746
0.997425
0.992654
0.984418
0.958583
0.880396
0.776208
0.880392
0.958572
0.984403
0.99264
0.981492
0.966195
0.924904
0.826699
0.716907
0.826696
0.924892
0.966178
0.981476
0.960057
0.93583
0.877878
0.763146
0.652237
0.763144
0.877867
0.935812
0.960039
0.925019
0.891335
0.817982
0.692081
0.584274
0.69208
0.817972
0.891317
0.925
0.87465
0.832571
0.747316
0.616528
0.515354
0.616528
0.747307
0.832553
0.87463
0.809306
0.761344
0.669237
0.539865
0.448023
0.539866
0.66923
0.761327
0.809287
0.730927
0.681004
0.587927
0.465659
0.384983
0.46566
0.587921
0.680988
0.730908
0.642496
0.595765
0.508032
0.397408
0.329534
0.39741
0.508027
0.595751
0.64248
0.547478
0.512557
0.434865
0.340942
0.290489
0.340944
0.434861
0.512545
0.547463
0.398798
0.425118
0.372294
0.290316
0.236956
0.290318
0.372291
0.425109
0.398787
0.267384
0.340763
0.318984
0.239083
0.177432
0.239084
0.318982
0.340755
0.267377
0.195558
0.277623
0.273455
0.197325
0.13866
0.197326
0.273454
0.277617
0.195552
0.156856
0.231876
0.23422
0.164992
0.113738
0.164993
0.234219
0.23187
0.156851
0.13244
0.196428
0.199977
0.138988
0.0956453
0.138989
0.199976
0.196423
0.132436
0.114095
0.167098
0.169928
0.117222
0.0810912
0.117223
0.169928
0.167093
0.114092
0.0987047
0.141938
0.143589
0.098631
0.068765
0.098632
0.143589
0.141934
0.0987014
0.0851711
0.120061
0.120601
0.082615
0.0581081
0.0826159
0.1206
0.120057
0.0851682
0.0730932
0.101004
0.100631
0.068813
0.0488582
0.0688138
0.10063
0.101001
0.0730908
0.0623051
0.0844425
0.0833343
0.0569383
0.0408552
0.0569391
0.0833342
0.0844395
0.062303
0.0527217
0.0700924
0.0683385
0.0467127
0.0339575
0.0467133
0.0683384
0.0700899
0.05272
0.0443112
0.0576958
0.0552181
0.0378358
0.0280107
0.0378364
0.0552181
0.0576937
0.0443097
0.037106
0.0469684
0.0433991
0.0299213
0.0227906
0.0299218
0.0433993
0.0469668
0.0371048
0.0313598
0.0380926
0.0321008
0.0223081
0.0178196
0.0223087
0.0321012
0.0380916
0.0313588
0.0268805
0.0272501
0.0149676
0.0113154
0.00993301
0.0113159
0.0149683
0.0272498
0.0268797
0.0243816
0.0233226
0.0233227
0.024381
0.024285
0.0244727
0.0239857
0.014284
0.00786237
0.0142843
0.0239862
0.0244727
0.0242844
0.0214938
0.0229954
0.0234655
0.013568
0.00582499
0.0135684
0.0234661
0.0229953
0.0214934
0.0224967
0.0133804
0.00544469
0.0133809
0.0224975
0.0212333
0.0128611
0.00527038
0.0128614
0.0212341
0.0198864
0.0121538
0.00505441
0.012154
0.0198872
0.0185633
0.0114034
0.00481536
0.0114035
0.0185641
0.0173025
0.0106677
0.0045714
0.0106679
0.0173032
0.0161144
0.00996646
0.00433195
0.00996664
0.0161151
0.0149997
0.00930447
0.00410034
0.00930467
0.0150004
0.0139554
0.00868167
0.00387756
0.00868188
0.0139561
0.0129794
0.00809748
0.00366424
0.00809771
0.0129801
0.0120564
0.00754287
0.0034571
0.00754312
0.012057
0.011251
0.00705777
0.00327354
0.00705804
0.0112517
0.0100603
0.00632754
0.00297453
0.00632787
0.0100609
1.00042
1.0003
0.998951
0.950034
0.829433
0.950031
0.998946
1.0003
1.00042
1.0004
1.00022
0.997874
0.943905
0.819092
0.943901
0.997869
1.00021
1.0004
1.00036
0.999864
0.994708
0.929764
0.797647
0.929761
0.994702
0.999859
1.00035
1.00004
0.998689
0.987839
0.906505
0.76596
0.906502
0.987832
0.998681
1.00003
0.99893
0.995542
0.975094
0.873504
0.725653
0.873501
0.975086
0.995533
0.998923
0.995945
0.988505
0.954109
0.830749
0.678513
0.830747
0.9541
0.988494
0.995936
0.989115
0.974974
0.922902
0.778996
0.626316
0.778995
0.922894
0.974961
0.989104
0.975597
0.952132
0.880392
0.719715
0.570757
0.719715
0.880384
0.952119
0.975585
0.9522
0.917663
0.826694
0.654901
0.513443
0.654902
0.826688
0.917649
0.952186
0.916249
0.870407
0.763142
0.586843
0.455891
0.586845
0.763136
0.870393
0.916234
0.86639
0.810734
0.692077
0.517912
0.399534
0.517915
0.692073
0.810721
0.866375
0.802911
0.740471
0.616524
0.450413
0.345715
0.450416
0.616521
0.740459
0.802896
0.727562
0.66259
0.539862
0.386518
0.295708
0.386521
0.53986
0.662579
0.727548
0.641395
0.580345
0.465656
0.328293
0.250793
0.328297
0.465655
0.580335
0.641381
0.550223
0.498457
0.397406
0.277671
0.212167
0.277675
0.397405
0.498449
0.550211
0.399194
0.415952
0.34094
0.236702
0.182345
0.236705
0.340939
0.415945
0.399185
0.161268
0.281243
0.290314
0.207069
0.162411
0.207072
0.290313
0.281238
0.161264
0.0592177
0.171467
0.239081
0.182994
0.144154
0.182997
0.23908
0.171463
0.0592153
0.0297137
0.117928
0.197323
0.160098
0.125703
0.160101
0.197323
0.117925
0.0297118
0.0213098
0.0918507
0.164991
0.138343
0.108351
0.138345
0.164991
0.0918484
0.0213081
0.0185602
0.0764921
0.138987
0.118361
0.0927004
0.118363
0.138986
0.0764901
0.0185586
0.0171953
0.0653525
0.117221
0.100477
0.0788445
0.100479
0.11722
0.0653508
0.0171939
0.0160631
0.0561668
0.0986307
0.0847212
0.0666937
0.0847229
0.0986293
0.0561653
0.0160618
0.0148935
0.0482055
0.0826148
0.0709986
0.0561125
0.0710001
0.0826135
0.0482041
0.0148923
0.013653
0.0412149
0.068813
0.0591153
0.0469357
0.0591167
0.0688117
0.0412137
0.013652
0.0123696
0.0350958
0.0569384
0.0488403
0.0389854
0.0488415
0.0569373
0.0350947
0.0123686
0.0110939
0.0298067
0.0467128
0.0399165
0.032071
0.0399176
0.0467118
0.0298057
0.0110931
0.00990178
0.0253494
0.037836
0.0320432
0.0259705
0.0320442
0.0378353
0.0253486
0.00990106
0.00891088
0.0217447
0.0299214
0.024827
0.0203888
0.0248279
0.029921
0.021744
0.00891026
0.00838657
0.0192344
0.0223082
0.0175862
0.0147888
0.017587
0.0223082
0.0192339
0.00838603
0.00826005
0.0151672
0.0113154
0.00861685
0.0076871
0.00861732
0.0113158
0.015167
0.00825962
0.00775243
0.0131627
0.0131627
0.00775211
0.00797014
0.0110498
0.0142841
0.0136275
0.00877571
0.0136279
0.0142846
0.0110498
0.00796981
0.00925006
0.0103309
0.0135681
0.0133412
0.00823523
0.0133419
0.0135685
0.0103308
0.00924975
0.0133806
0.0126697
0.00775335
0.0126705
0.0133813
0.0128612
0.0118993
0.00730808
0.0118998
0.0128619
0.0121539
0.0111209
0.00687049
0.0111213
0.0121546
0.0114035
0.0103698
0.00644755
0.0103701
0.0114041
0.0106678
0.009659
0.00604396
0.00965926
0.0106684
0.00996657
0.0089914
0.00566156
0.00899164
0.00996708
0.00930457
0.00836627
0.00530037
0.00836649
0.00930506
0.00868176
0.00778156
0.00495966
0.00778176
0.00868222
0.00809757
0.00723576
0.00463901
0.00723595
0.008098
0.00754295
0.00672023
0.00433351
0.00672042
0.00754335
0.00705785
0.00627033
0.00406512
0.0062705
0.00705823
0.00632761
0.00560142
0.00365581
0.00560162
0.00632798
0.99551
0.991195
0.96734
0.82943
0.623709
0.82943
0.967335
0.991191
0.99551
0.994966
0.989914
0.962838
0.81909
0.613103
0.819089
0.962833
0.98991
0.994964
0.992946
0.986214
0.952137
0.797645
0.592565
0.797644
0.952131
0.986208
0.992942
0.988876
0.97903
0.934052
0.765958
0.56404
0.765958
0.934046
0.979023
0.988871
0.981717
0.966924
0.907674
0.725652
0.529806
0.725652
0.907668
0.966916
0.98171
0.969985
0.948244
0.872472
0.678512
0.491769
0.678513
0.872466
0.948235
0.969977
0.951862
0.921403
0.828449
0.626315
0.451376
0.626317
0.828444
0.921393
0.951852
0.925458
0.885195
0.776201
0.570757
0.409728
0.570759
0.776197
0.885185
0.925448
0.889197
0.839082
0.716901
0.513443
0.367732
0.513446
0.716898
0.839072
0.889186
0.84221
0.78339
0.652232
0.455892
0.326205
0.455895
0.652229
0.78338
0.842199
0.784645
0.71936
0.58427
0.399535
0.285922
0.399538
0.584268
0.719351
0.784634
0.71771
0.649107
0.515351
0.345716
0.247628
0.34572
0.515349
0.649098
0.717699
0.643364
0.575372
0.44802
0.295708
0.212043
0.295712
0.44802
0.575364
0.643353
0.561817
0.500417
0.38498
0.250794
0.179868
0.250798
0.384981
0.50041
0.561806
0.481065
0.433039
0.329531
0.212168
0.151784
0.212172
0.329532
0.433032
0.481056
0.238513
0.337898
0.290487
0.182346
0.128428
0.18235
0.290488
0.337893
0.238508
0.0747908
0.167276
0.236954
0.162411
0.11101
0.162415
0.236953
0.167272
0.0747879
0.0347511
0.0788235
0.177431
0.144154
0.0980368
0.144157
0.17743
0.0788206
0.0347489
0.0240472
0.0505471
0.138659
0.125703
0.0867677
0.125707
0.138658
0.0505445
0.0240452
0.0193445
0.0402588
0.113737
0.108351
0.0762576
0.108355
0.113737
0.0402565
0.0193426
0.0161918
0.0349218
0.0956447
0.0927002
0.0664664
0.092703
0.0956442
0.0349198
0.0161901
0.0136276
0.0309623
0.0810907
0.0788444
0.0574958
0.0788467
0.0810904
0.0309605
0.013626
0.011493
0.0274655
0.0687647
0.0666936
0.0493881
0.0666956
0.0687644
0.0274639
0.0114915
0.0097081
0.0242529
0.0581079
0.0561125
0.0421573
0.0561142
0.0581078
0.0242515
0.00970675
0.00821784
0.0213159
0.0488581
0.0469356
0.0357553
0.0469371
0.048858
0.0213147
0.00821663
0.00697699
0.0186842
0.0408552
0.0389854
0.0301046
0.0389867
0.0408552
0.0186832
0.0069759
0.00595507
0.0164143
0.0339575
0.0320709
0.0251085
0.032072
0.0339576
0.0164135
0.0059541
0.00514778
0.0145958
0.0280107
0.0259705
0.0206395
0.0259714
0.0280109
0.0145952
0.00514692
0.00459354
0.0133383
0.0227906
0.0203887
0.0165073
0.0203895
0.0227909
0.0133378
0.00459279
0.00446648
0.012899
0.0178197
0.0147888
0.0123273
0.0147894
0.0178201
0.0128987
0.00446584
0.00473643
0.0111985
0.00993301
0.00768708
0.00684233
0.00768731
0.00993342
0.0111986
0.00473594
0.00420209
0.00995035
0.00995064
0.00420175
0.00314451
0.00682267
0.00786244
0.00877576
0.00747939
0.00877633
0.00786289
0.0068228
0.0031442
0.00264
0.00352431
0.00582506
0.00823528
0.00739642
0.0082357
0.00582516
0.00352402
0.0026397
0.00544476
0.0077534
0.00705936
0.0077533
0.00544457
0.00527045
0.00730813
0.0066476
0.00730779
0.00527012
0.00505447
0.00687054
0.00622839
0.0068702
0.00505402
0.00481542
0.0064476
0.0058242
0.00644718
0.00481486
0.00457146
0.00604401
0.00544143
0.00604351
0.00457081
0.004332
0.0056616
0.00508124
0.00566104
0.00433127
0.00410038
0.0053004
0.00474311
0.0052998
0.00409959
0.00387761
0.00495969
0.00442593
0.00495905
0.00387676
0.00366428
0.00463904
0.00412894
0.00463837
0.00366338
0.00345714
0.00433354
0.00384756
0.00433284
0.00345619
0.00327358
0.00406515
0.00360081
0.00406444
0.0032726
0.00297457
0.00365583
0.0032304
0.00365511
0.00297354
1.00041
1.0003
0.998944
0.950027
0.829429
0.950026
0.998942
1.0003
1.00041
1.0004
1.00021
0.997867
0.943897
0.819089
0.943896
0.997864
1.00021
1.0004
1.00036
0.999859
0.9947
0.929757
0.797644
0.929755
0.994697
0.999856
1.00035
1.00003
0.998682
0.98783
0.906498
0.765958
0.906497
0.987827
0.998678
1.00003
0.998925
0.995534
0.975084
0.873498
0.725652
0.873497
0.97508
0.995529
0.998921
0.995939
0.988496
0.954099
0.830744
0.678514
0.830744
0.954095
0.98849
0.995934
0.989107
0.974964
0.922894
0.778994
0.626318
0.778994
0.92289
0.974958
0.989102
0.97559
0.952123
0.880385
0.719714
0.57076
0.719715
0.880381
0.952116
0.975582
0.952192
0.917654
0.826689
0.654902
0.513447
0.654904
0.826686
0.917646
0.952184
0.916242
0.870399
0.763138
0.586846
0.455896
0.586848
0.763135
0.870391
0.916233
0.866385
0.810728
0.692075
0.517916
0.399539
0.517918
0.692073
0.81072
0.866375
0.802908
0.740467
0.616524
0.450417
0.345721
0.450421
0.616523
0.74046
0.802898
0.72756
0.662588
0.539863
0.386522
0.295714
0.386526
0.539862
0.662581
0.72755
0.641394
0.580344
0.465658
0.328298
0.250799
0.328302
0.465658
0.580338
0.641384
0.550223
0.498457
0.397408
0.277676
0.212173
0.27768
0.397409
0.498451
0.550214
0.399196
0.415953
0.340942
0.236706
0.182351
0.236711
0.340943
0.415948
0.399188
0.16127
0.281245
0.290316
0.207072
0.162415
0.207077
0.290316
0.28124
0.161266
0.0592188
0.171469
0.239083
0.182997
0.144158
0.183001
0.239083
0.171465
0.0592161
0.0297145
0.117929
0.197325
0.160101
0.125707
0.160105
0.197325
0.117926
0.0297123
0.0213105
0.0918519
0.164993
0.138345
0.108355
0.138349
0.164993
0.091849
0.0213085
0.0185608
0.076493
0.138988
0.118363
0.0927032
0.118367
0.138989
0.0764905
0.0185589
0.0171959
0.0653532
0.117223
0.100479
0.078847
0.100482
0.117223
0.065351
0.0171941
0.0160635
0.0561674
0.0986317
0.0847229
0.0666958
0.0847256
0.0986324
0.0561655
0.0160619
0.0148939
0.0482059
0.0826157
0.0710001
0.0561143
0.0710024
0.0826165
0.0482043
0.0148924
0.0136533
0.0412152
0.0688137
0.0591167
0.0469372
0.0591186
0.0688146
0.0412139
0.013652
0.0123698
0.035096
0.056939
0.0488415
0.0389868
0.0488431
0.0569399
0.0350949
0.0123686
0.0110941
0.0298068
0.0467133
0.0399176
0.0320721
0.0399189
0.0467142
0.029806
0.011093
0.00990188
0.0253495
0.0378364
0.0320442
0.0259715
0.0320452
0.0378373
0.0253489
0.00990096
0.00891094
0.0217447
0.0299218
0.0248279
0.0203895
0.0248287
0.0299227
0.0217444
0.00891014
0.00838662
0.0192345
0.0223087
0.0175869
0.0147894
0.0175874
0.0223094
0.0192344
0.00838594
0.00826011
0.0151675
0.0113159
0.0086173
0.00768731
0.00861741
0.0113163
0.0151676
0.00825958
0.00775243
0.013163
0.0131633
0.00775206
0.00797004
0.0110499
0.0142844
0.013628
0.0087764
0.0136281
0.0142846
0.01105
0.00796968
0.00925003
0.0103311
0.0135685
0.0133419
0.00823577
0.0133414
0.0135679
0.0103305
0.00924957
0.013381
0.0126705
0.00775337
0.0126687
0.0133797
0.0128614
0.0118999
0.00730785
0.0118979
0.0128604
0.0121541
0.0111213
0.00687026
0.0111197
0.0121533
0.0114036
0.0103701
0.00644723
0.0103687
0.0114029
0.0106679
0.0096593
0.00604356
0.00965783
0.0106672
0.00996669
0.00899168
0.00566109
0.00899019
0.00996587
0.00930472
0.00836653
0.00529984
0.00836501
0.00930384
0.00868193
0.00778179
0.00495909
0.00778026
0.008681
0.00809776
0.00723598
0.0046384
0.00723444
0.00809678
0.00754316
0.00672045
0.00433287
0.0067189
0.00754213
0.00705807
0.00627053
0.00406447
0.00626899
0.00705701
0.0063279
0.00560165
0.00365514
0.00560003
0.00632671
0.999943
0.99977
0.999919
0.998942
0.967333
0.998941
0.999918
0.999769
0.999943
0.999946
0.999752
0.999937
0.997865
0.962831
0.997864
0.999935
0.999751
0.999945
0.999904
0.999676
0.999938
0.994698
0.952129
0.994697
0.999937
0.999674
0.999904
0.999818
0.999514
0.999514
0.987828
0.934045
0.987826
0.999512
0.999512
0.999817
0.999621
0.999082
0.997572
0.975081
0.907666
0.97508
0.99757
0.999079
0.999619
0.999093
0.997705
0.992068
0.954096
0.872465
0.954095
0.992064
0.997702
0.99909
0.997424
0.993743
0.980112
0.92289
0.828443
0.922889
0.980108
0.993739
0.99742
0.99264
0.9844
0.958565
0.880381
0.776196
0.880381
0.958561
0.984395
0.992635
0.981476
0.966175
0.924885
0.826685
0.716897
0.826685
0.924882
0.966169
0.981471
0.96004
0.93581
0.87786
0.763134
0.652229
0.763135
0.877857
0.935804
0.960034
0.925002
0.891315
0.817966
0.692071
0.584268
0.692072
0.817963
0.891309
0.924995
0.874633
0.832553
0.747303
0.616521
0.51535
0.616522
0.7473
0.832546
0.874626
0.809291
0.761328
0.669226
0.53986
0.44802
0.539862
0.669224
0.761322
0.809283
0.730913
0.68099
0.587918
0.465656
0.384981
0.465658
0.587917
0.680984
0.730906
0.642486
0.595753
0.508025
0.397406
0.329533
0.397408
0.508024
0.595748
0.642478
0.547471
0.512549
0.43486
0.34094
0.290488
0.340943
0.434859
0.512544
0.547464
0.398795
0.425113
0.372289
0.290314
0.236954
0.290316
0.372289
0.425108
0.398789
0.267384
0.34076
0.318981
0.239081
0.177431
0.239083
0.318981
0.340755
0.267379
0.195558
0.277621
0.273453
0.197323
0.138658
0.197325
0.273453
0.277617
0.195554
0.156855
0.231874
0.234219
0.164991
0.113737
0.164993
0.234219
0.231871
0.156852
0.13244
0.196427
0.199976
0.138986
0.0956447
0.138989
0.199976
0.196424
0.132436
0.114095
0.167097
0.169927
0.117221
0.0810908
0.117223
0.169928
0.167095
0.114092
0.0987042
0.141938
0.143589
0.0986297
0.0687649
0.0986328
0.143589
0.141935
0.0987017
0.0851706
0.120061
0.1206
0.0826138
0.0581082
0.0826169
0.120601
0.120059
0.0851683
0.0730927
0.101004
0.10063
0.068812
0.0488584
0.068815
0.100631
0.101002
0.0730908
0.0623046
0.0844423
0.0833342
0.0569375
0.0408555
0.0569403
0.0833352
0.0844409
0.0623029
0.0527213
0.0700923
0.0683385
0.046712
0.0339578
0.0467145
0.0683395
0.0700912
0.0527198
0.0443108
0.0576958
0.0552182
0.0378354
0.0280111
0.0378376
0.0552192
0.0576949
0.0443095
0.0371057
0.0469686
0.0433994
0.0299211
0.0227911
0.0299229
0.0434003
0.0469679
0.0371046
0.0313596
0.0380929
0.0321013
0.0223082
0.0178202
0.0223096
0.0321022
0.0380925
0.0313586
0.0268805
0.0272507
0.0149683
0.0113158
0.00993345
0.0113163
0.014969
0.0272505
0.0268797
0.0243817
0.0233235
0.0233233
0.024381
0.0242851
0.0244734
0.0239864
0.0142846
0.00786299
0.0142848
0.0239863
0.0244729
0.0242844
0.0214941
0.022996
0.0234662
0.0135686
0.00582524
0.0135681
0.0234655
0.0229951
0.0214934
0.0224977
0.0133813
0.00544465
0.0133798
0.0224963
0.0212343
0.0128619
0.00527019
0.0128605
0.021233
0.0198874
0.0121546
0.00505409
0.0121534
0.019886
0.0185643
0.0114041
0.00481493
0.011403
0.0185629
0.0173034
0.0106684
0.00457087
0.0106673
0.017302
0.0161153
0.00996713
0.00433133
0.00996598
0.0161139
0.0150005
0.0093051
0.00409964
0.00930394
0.0149992
0.0139562
0.00868226
0.00387681
0.00868109
0.0139549
0.0129802
0.00809804
0.00366342
0.00809686
0.0129789
0.0120572
0.00754339
0.00345624
0.00754221
0.0120558
0.0112518
0.00705827
0.00327264
0.00705708
0.0112505
0.010061
0.00632802
0.00297358
0.00632678
0.0100597
0.999997
1.00005
0.999769
1.0003
0.99119
1.0003
0.999769
1.00005
0.999997
0.999995
1.00004
0.999751
1.00021
0.989908
1.00021
0.999751
1.00004
0.999995
0.999993
1.00002
0.999675
0.999856
0.986207
0.999856
0.999674
1.00002
0.999992
0.999977
0.999941
0.999513
0.998679
0.979022
0.998678
0.999512
0.99994
0.999976
0.999877
0.999681
0.999081
0.99553
0.966915
0.995529
0.999079
0.999679
0.999876
0.999535
0.998987
0.997704
0.988491
0.948233
0.98849
0.997702
0.998984
0.999533
0.998496
0.997119
0.993741
0.974958
0.921392
0.974957
0.993739
0.997116
0.998493
0.995503
0.992319
0.984398
0.952116
0.885183
0.952115
0.984395
0.992315
0.995499
0.988056
0.981621
0.966172
0.917646
0.83907
0.917646
0.966169
0.981617
0.988052
0.972596
0.961382
0.935807
0.87039
0.783379
0.870391
0.935804
0.961377
0.972591
0.945426
0.92834
0.891311
0.810719
0.71935
0.81072
0.891309
0.928334
0.94542
0.903962
0.880732
0.832548
0.740458
0.649097
0.740459
0.832546
0.880727
0.903956
0.847666
0.818903
0.761324
0.662579
0.575364
0.662581
0.761322
0.818898
0.847659
0.778418
0.745386
0.680986
0.580335
0.50041
0.580337
0.680984
0.745381
0.778411
0.699988
0.664522
0.595749
0.498449
0.433033
0.498451
0.595748
0.664517
0.699982
0.619529
0.582531
0.512544
0.415946
0.337893
0.415948
0.512544
0.582527
0.619523
0.537218
0.505679
0.425108
0.281239
0.167273
0.28124
0.425108
0.505676
0.537212
0.45509
0.436392
0.340755
0.171464
0.078821
0.171465
0.340755
0.436389
0.455085
0.386247
0.376351
0.277617
0.117925
0.0505449
0.117926
0.277618
0.376349
0.386243
0.331054
0.324785
0.231871
0.0918489
0.0402568
0.0918494
0.231871
0.324783
0.33105
0.2854
0.279952
0.196423
0.0764906
0.0349201
0.0764909
0.196424
0.27995
0.285396
0.24616
0.240506
0.167094
0.0653511
0.0309608
0.0653515
0.167095
0.240504
0.246156
0.211672
0.205635
0.141934
0.0561656
0.0274641
0.056166
0.141936
0.205634
0.211669
0.181139
0.174849
0.120057
0.0482044
0.0242517
0.0482048
0.120059
0.174848
0.181136
0.154144
0.147789
0.101001
0.0412139
0.0213149
0.0412144
0.101003
0.147788
0.154142
0.130408
0.124138
0.0844398
0.0350949
0.0186835
0.0350954
0.0844414
0.124137
0.130406
0.109692
0.103577
0.0700901
0.0298059
0.0164137
0.0298064
0.0700916
0.103577
0.109691
0.0917832
0.0857847
0.057694
0.0253487
0.0145954
0.0253494
0.0576953
0.0857844
0.0917816
0.0764996
0.0704265
0.046967
0.0217441
0.0133381
0.0217448
0.0469682
0.0704262
0.0764983
0.0637272
0.0574094
0.0380917
0.019234
0.0128989
0.0192348
0.0380928
0.0574091
0.063726
0.053567
0.0459898
0.0272499
0.0151671
0.0111987
0.0151678
0.0272507
0.0459896
0.0535659
0.0461609
0.0396889
0.0233227
0.0131628
0.00995074
0.0131635
0.0233234
0.0396886
0.0461599
0.0400514
0.0372116
0.0244728
0.0110498
0.00682289
0.0110502
0.0244731
0.0372111
0.0400505
0.0280944
0.0285597
0.0229955
0.0103308
0.00352408
0.0103307
0.0229953
0.0285591
0.0280938
0.999999
0.999998
0.999943
1.00041
0.995509
1.00041
0.999943
0.999997
0.999999
0.999999
0.999995
0.999945
1.0004
0.994963
1.0004
0.999945
0.999995
0.999998
0.999996
0.999993
0.999904
1.00035
0.992942
1.00035
0.999904
0.999992
0.999995
0.999981
0.999976
0.999818
1.00003
0.98887
1.00003
0.999817
0.999976
0.99998
0.999912
0.999877
0.99962
0.998922
0.981709
0.998921
0.999619
0.999876
0.99991
0.999675
0.999535
0.999091
0.995935
0.969976
0.995934
0.99909
0.999533
0.999672
0.998934
0.998496
0.997422
0.989102
0.951852
0.989101
0.99742
0.998493
0.99893
0.996684
0.995502
0.992637
0.975583
0.925447
0.975582
0.992635
0.995499
0.996678
0.990761
0.988055
0.981473
0.952184
0.889186
0.952184
0.981471
0.988052
0.990755
0.977838
0.972595
0.960036
0.916233
0.842198
0.916233
0.960034
0.972591
0.977831
0.95417
0.945424
0.924997
0.866374
0.784633
0.866375
0.924995
0.94542
0.954163
0.916834
0.90396
0.874628
0.802896
0.717699
0.802897
0.874626
0.903956
0.916826
0.86486
0.847664
0.809284
0.727548
0.643353
0.727549
0.809283
0.847659
0.864853
0.79987
0.778416
0.730907
0.641382
0.561807
0.641384
0.730906
0.778411
0.799862
0.726013
0.699986
0.642479
0.550212
0.481056
0.550214
0.642478
0.699982
0.726006
0.64941
0.619526
0.547463
0.399186
0.238508
0.399188
0.547464
0.619523
0.649403
0.576805
0.537215
0.398788
0.161265
0.0747884
0.161266
0.398789
0.537213
0.576799
0.51031
0.455087
0.267378
0.0592158
0.0347493
0.0592164
0.267379
0.455085
0.510304
0.449868
0.386244
0.195553
0.0297122
0.0240455
0.0297126
0.195554
0.386243
0.449864
0.39514
0.331052
0.156851
0.0213085
0.0193429
0.0213088
0.156852
0.33105
0.395136
0.345546
0.285397
0.132436
0.0185589
0.0161903
0.0185592
0.132437
0.285397
0.345543
0.30059
0.246157
0.114092
0.0171941
0.0136262
0.0171944
0.114092
0.246157
0.300587
0.259957
0.211669
0.0987017
0.0160619
0.0114917
0.0160622
0.0987022
0.211669
0.259955
0.22346
0.181136
0.0851684
0.0148925
0.00970692
0.0148927
0.0851689
0.181137
0.223459
0.190953
0.154142
0.0730909
0.0136521
0.00821677
0.0136523
0.0730913
0.154142
0.190952
0.162283
0.130406
0.0623031
0.0123687
0.00697603
0.0123689
0.0623034
0.130406
0.162282
0.137269
0.109691
0.0527201
0.0110931
0.00595422
0.0110933
0.0527204
0.109691
0.137268
0.115697
0.0917816
0.0443098
0.00990109
0.00514703
0.00990122
0.04431
0.0917819
0.115697
0.0973075
0.0764983
0.0371048
0.00891027
0.00459289
0.00891039
0.0371051
0.0764986
0.0973069
0.0817808
0.063726
0.0313588
0.00838604
0.00446594
0.00838618
0.0313591
0.0637263
0.0817804
0.068782
0.0535659
0.0268797
0.00825963
0.00473603
0.00825981
0.02688
0.0535662
0.0687817
0.0575659
0.0461599
0.024381
0.0077521
0.00420184
0.00775228
0.0243813
0.0461601
0.0575656
0.0463505
0.0400506
0.0242845
0.00796979
0.00314428
0.00796992
0.0242847
0.0400507
0.0463503
0.0292396
0.0280939
0.0214935
0.00924975
0.00263976
0.00924977
0.0214936
0.0280939
0.0292396
)
;

boundaryField
{
    injectionXMinus
    {
        type            zeroGradient;
    }
    injectionXPlus
    {
        type            zeroGradient;
    }
    injectionYMinus
    {
        type            zeroGradient;
    }
    injectionYPlus
    {
        type            zeroGradient;
    }
    inletXMinus
    {
        type            fixedValue;
        value           uniform 1;
    }
    inletXPlus
    {
        type            fixedValue;
        value           uniform 1;
    }
    inletYMinus
    {
        type            fixedValue;
        value           uniform 1;
    }
    inletYPlus
    {
        type            fixedValue;
        value           uniform 1;
    }
    outlet
    {
        type            zeroGradient;
    }
    valve
    {
        type            zeroGradient;
    }
    walls
    {