/*--------------------------------*- C++ -*----------------------------------*\
  =========                 |
  \\      /  F ield         | OpenFOAM: The Open Source CFD Toolbox
   \\    /   O peration     | Website:  https://openfoam.org
    \\  /    A nd           | Version:  6
     \\/     M anipulation  |
\*---------------------------------------------------------------------------*/
FoamFile
{
    version     2.0;
    format      ascii;
    class       volScalarField;
    location    "0.5";
    object      T;
}
// * * * * * * * * * * * * * * * * * * * * * * * * * * * * * * * * * * * * * //

dimensions      [0 0 0 1 0 0 0];

internalField   nonuniform List<scalar> 
3029
(
293.151
293.152
293.183
292.919
295.694
292.918
293.183
293.152
293.151
293.151
293.154
293.182
292.928
296.004
292.927
293.182
293.154
293.151
293.154
293.157
293.207
292.956
297.148
292.955
293.207
293.156
293.154
293.163
293.168
293.258
293.14
299.451
293.139
293.258
293.167
293.163
293.204
293.227
293.373
293.77
303.499
293.769
293.372
293.226
293.204
293.34
293.423
293.675
295.461
310.13
295.46
293.673
293.421
293.34
293.762
294.014
294.621
299.325
320.373
299.323
294.619
294.011
293.761
295.036
295.708
297.328
306.965
335.293
306.963
297.325
295.705
295.034
298.384
299.919
303.638
320.188
355.783
320.185
303.635
299.914
298.383
305.688
308.656
315.752
340.5
382.326
340.496
315.748
308.651
305.685
319.061
324.008
335.549
368.683
414.88
368.678
335.544
324.002
319.059
340.157
347.442
364.019
404.487
452.538
404.481
364.012
347.434
340.154
369.522
379.224
400.875
447.366
495.378
447.359
400.867
379.215
369.517
406.236
418.469
445.53
494.493
536.956
494.486
445.52
418.459
406.23
448.014
462.26
493.169
553.425
607.725
553.416
493.158
462.248
448.007
490.929
509.109
560.681
608.792
547.8
608.785
560.669
509.096
490.92
533.167
558.742
582.386
479.976
399.473
479.973
582.376
558.727
533.157
573.343
597.445
560.618
414.996
393.321
414.995
560.611
597.43
573.331
609.216
625.273
545.424
393.73
390.553
393.73
545.418
625.258
609.203
640.486
647.457
541.956
388.694
389.371
388.695
541.952
647.443
640.472
667.887
666.853
545.818
389.803
388.844
389.803
545.814
666.838
667.871
692.126
684.338
553.029
393.377
388.81
393.377
553.025
684.323
692.11
713.648
700.064
561.385
398.069
389.248
398.069
561.381
700.049
713.632
732.702
714.012
569.846
403.377
390.154
403.377
569.841
713.998
732.686
749.448
726.162
577.931
409.14
391.562
409.14
577.927
726.148
749.432
764.018
736.503
585.422
415.376
393.587
415.376
585.418
736.49
764.002
776.547
745.032
592.236
422.282
396.485
422.282
592.232
745.019
776.531
787.168
751.743
598.388
430.171
400.56
430.17
598.384
751.731
787.152
796.003
756.772
604.585
440.454
407.313
440.454
604.582
756.762
795.988
803.159
760.642
611.713
453.202
416.153
453.201
611.709
760.632
803.144
808.825
765.079
626.088
480.865
442.244
480.865
626.084
765.071
808.81
814.89
773.687
642.648
498.396
455.381
498.395
642.645
773.68
814.876
823.422
793.331
674.245
506.929
443.35
506.928
674.242
793.324
823.408
837.047
827.052
757.482
590.008
475.114
590.006
757.478
827.044
837.034
293.152
293.126
293.284
292.99
298.139
292.989
293.284
293.126
293.152
293.154
293.132
293.295
293.04
298.865
293.039
293.295
293.132
293.154
293.157
293.144
293.341
293.242
300.959
293.241
293.34
293.143
293.156
293.168
293.191
293.435
293.91
305.021
293.909
293.433
293.19
293.167
293.227
293.342
293.683
295.693
311.864
295.691
293.681
293.34
293.225
293.423
293.738
294.464
299.673
322.421
299.671
294.462
293.735
293.421
294.014
294.797
296.707
307.323
337.59
307.32
296.704
294.793
294.01
295.708
297.512
301.989
320.231
358.049
320.228
301.985
297.507
295.704
299.918
303.56
312.29
339.709
384.104
339.705
312.285
303.554
299.914
308.656
314.998
329.449
366.41
415.569
366.405
329.443
314.991
308.65
324.008
333.669
354.59
400.126
451.755
400.12
354.582
333.66
324.001
347.441
360.57
387.798
439.822
491.396
439.814
387.789
360.56
347.433
379.223
395.496
428.005
483.821
533.307
483.812
427.994
395.484
379.213
418.469
437.058
473.574
530.368
574.375
530.359
473.562
437.044
418.457
462.259
482.695
520.845
575.555
618.42
575.545
520.832
482.68
462.246
509.109
528.796
571.368
632.819
649.29
632.81
571.353
528.779
509.094
558.74
574.359
614.072
605.372
514.78
605.365
614.057
574.341
558.724
597.444
614.867
633.048
544.615
437.879
544.611
633.035
614.848
597.426
625.272
647.219
642.389
512.487
414.549
512.485
642.377
647.199
625.254
647.456
672.878
650.842
501.78
410.987
501.778
650.831
672.859
647.438
666.852
693.944
660.02
501.862
414.597
501.86
660.01
693.925
666.834
684.336
711.726
669.288
506.507
420.839
506.506
669.277
711.707
684.318
700.063
726.895
677.966
512.855
428.087
512.854
677.956
726.876
700.045
714.012
739.792
685.683
519.851
435.913
519.849
685.673
739.774
713.994
726.162
750.623
692.344
527.232
444.377
527.231
692.335
750.606
726.145
736.503
759.53
697.995
535.216
453.891
535.214
697.986
759.514
736.487
745.032
766.611
702.825
544.577
465.506
544.576
702.817
766.597
745.017
751.744
771.808
707.011
556.764
481.17
556.762
707.003
771.795
751.73
756.773
775.296
712.395
576.366
506.719
576.364
712.388
775.284
756.76
760.643
775.842
716.613
605.191
545.21
605.189
716.606
775.832
760.632
765.081
777.957
748.578
687.494
651.946
687.492
748.573
777.948
765.071
773.689
779.548
758.403
715.837
688.043
715.836
758.399
779.541
773.68
793.332
792.178
741.048
646.301
603.042
646.3
741.044
792.171
793.323
827.053
829.451
779.643
621.245
506.411
621.243
779.639
829.444
827.045
293.183
293.284
293.203
293.76
311.624
293.759
293.202
293.284
293.183
293.182
293.295
293.194
294.37
314.17
294.369
293.193
293.295
293.182
293.207
293.34
293.196
296.163
320.219
296.161
293.194
293.339
293.206
293.258
293.434
293.438
300.047
330.439
300.045
293.436
293.433
293.257
293.373
293.682
294.539
307.252
345.345
307.25
294.537
293.68
293.371
293.674
294.464
297.653
319.112
365.236
319.108
297.65
294.461
293.672
294.621
296.706
304.411
336.746
390.11
336.742
304.407
296.702
294.617
297.327
301.988
316.589
360.766
419.63
360.761
316.583
301.983
297.323
303.637
312.289
335.62
391.106
453.134
391.1
335.614
312.283
303.632
315.751
329.448
362.191
427.013
489.672
427.006
362.184
329.44
315.745
335.548
354.588
396.032
467.162
528.067
467.154
396.023
354.579
335.541
364.018
387.796
435.959
509.853
567.013
509.844
435.949
387.786
364.009
400.873
428.003
480.062
553.132
604.996
553.122
480.05
427.99
400.863
445.528
473.572
526.033
595.22
640.936
595.21
526.019
473.558
445.516
493.167
520.843
571.073
632.97
670.263
632.959
571.058
520.827
493.153
560.677
571.365
612.456
667.952
703.555
667.941
612.44
571.348
560.662
582.383
614.069
648.707
692.317
691.006
692.307
648.691
614.051
582.369
560.616
633.044
677.554
696.062
647.328
696.053
677.537
633.027
560.604
545.422
642.386
699.407
695.764
623.275
695.756
699.39
642.37
545.412
541.955
650.84
716.422
698.069
616.723
698.062
716.406
650.824
541.946
545.817
660.018
730.175
702.782
619.352
702.775
730.159
660.003
545.808
553.028
669.286
741.465
708.418
625.77
708.412
741.45
669.271
553.019
561.385
677.965
750.686
714.02
633.427
714.014
750.671
677.95
561.376
569.846
685.683
758.096
719.113
641.313
719.107
758.082
685.669
569.837
577.931
692.344
763.919
723.674
649.257
723.669
763.906
692.331
577.923
585.423
697.996
768.363
727.987
657.676
727.982
768.351
697.983
585.414
592.238
702.827
771.658
732.656
667.62
732.651
771.647
702.815
592.23
598.39
707.014
773.978
738.896
681.255
738.892
773.967
707.003
598.383
604.589
712.399
776.622
749.429
703.075
749.424
776.613
712.389
604.582
611.717
716.617
778.038
770.71
742.993
770.707
778.031
716.608
611.71
626.093
748.582
828.289
836.467
836.358
836.465
828.287
748.576
626.087
642.653
758.406
758.402
642.648
674.25
741.052
766.101
714.162
664.522
714.16
766.097
741.048
674.245
757.486
779.647
784.248
688.061
592.036
688.059
784.243
779.642
757.482
791.718
690.045
580.814
690.043
791.713
794.658
694.792
583.668
694.789
794.653
795.889
698.705
589.178
698.702
795.884
796.517
701.981
595.137
701.978
796.512
796.961
704.984
601.142
704.982
796.957
797.367
707.907
607.158
707.905
797.363
797.785
710.826
613.184
710.823
797.78
798.232
713.772
619.236
713.77
798.228
798.707
716.721
625.247
716.719
798.703
799.253
719.824
631.496
719.822
799.25
799.704
722.403
636.69
722.401
799.701
800.735
727.338
646.376
727.336
800.732
292.918
292.99
293.759
321.405
389.546
321.402
293.758
292.989
292.918
292.927
293.039
294.37
324.87
395.39
324.867
294.368
293.038
292.927
292.955
293.241
296.162
332.862
407.509
332.858
296.159
293.24
292.954
293.139
293.909
300.046
346.006
425.412
346.001
300.043
293.907
293.138
293.769
295.691
307.251
364.653
448.186
364.648
307.247
295.688
293.767
295.46
299.671
319.11
388.811
474.82
388.805
319.106
299.668
295.457
299.323
307.32
336.744
418.051
504.31
418.044
336.739
307.316
299.32
306.963
320.229
360.764
451.545
535.699
451.537
360.757
320.223
306.959
320.186
339.706
391.104
488.163
568.08
488.155
391.095
339.7
320.181
340.497
366.407
427.01
526.614
600.595
526.605
427.001
366.399
340.491
368.68
400.123
467.159
565.557
632.433
565.547
467.148
400.113
368.672
404.484
439.817
509.85
603.692
662.841
603.682
509.838
439.806
404.475
447.362
483.816
553.128
639.784
691.077
639.774
553.115
483.803
447.352
494.489
530.363
595.217
672.692
716.518
672.682
595.202
530.349
494.477
553.419
575.549
632.966
701.277
738.057
701.266
632.951
575.534
553.406
608.787
632.813
667.948
724.104
755.501
724.093
667.932
632.796
608.773
479.974
605.367
692.313
743.073
769.789
743.062
692.297
605.354
479.969
414.996
544.612
696.057
758.771
777.244
758.76
696.042
544.603
414.995
393.73
512.485
695.76
771.176
782.018
771.166
695.745
512.478
393.73
388.695
501.779
698.066
781.035
786.651
781.025
698.051
501.773
388.695
389.803
501.861
702.78
789.025
791.416
789.015
702.766
501.854
389.803
393.377
506.507
708.416
795.524
795.96
795.515
708.403
506.501
393.377
398.07
512.856
714.019
800.756
800.025
800.747
714.007
512.849
398.069
403.378
519.852
719.112
804.897
803.513
804.888
719.1
519.845
403.377
409.141
527.234
723.675
808.133
806.481
808.125
723.663
527.227
409.14
415.378
535.219
727.988
810.696
809.12
810.689
727.977
535.212
415.376
422.284
544.581
732.658
812.922
811.782
812.915
732.648
544.575
422.282
430.173
556.769
738.899
815.396
815.112
815.39
738.89
556.763
430.171
440.458
576.371
749.432
819.072
820.193
819.067
749.424
576.366
440.456
453.206
605.197
770.714
827.473
829.683
827.469
770.707
605.192
453.204
480.87
687.5
836.469
838.009
840.257
838.008
836.467
687.496
480.868
498.402
715.843
715.841
498.4
506.936
646.308
714.167
741.03
713.584
741.028
714.165
646.306
506.933
590.014
621.251
688.067
728.581
693.244
728.579
688.064
621.249
590.013
690.051
722.43
684.454
722.427
690.048
694.798
721.222
683.037
721.219
694.794
698.71
721.867
684.397
721.864
698.707
701.986
723.176
686.75
723.173
701.983
704.989
724.745
689.463
724.743
704.986
707.912
726.451
692.335
726.448
707.909
710.831
728.251
695.298
728.249
710.828
713.777
730.138
698.337
730.136
713.775
716.726
732.078
701.402
732.076
716.724
719.829
734.191
704.661
734.188
719.827
722.408
735.936
707.352
735.934
722.406
727.342
739.505
712.635
739.503
727.34
295.694
298.138
311.622
389.543
505.77
389.538
311.619
298.137
295.694
296.003
298.863
314.167
395.387
511.764
395.382
314.165
298.862
296.002
297.147
300.957
320.216
407.505
523.368
407.499
320.213
300.955
297.146
299.449
305.018
330.435
425.408
539.485
425.402
330.432
305.016
299.448
303.497
311.861
345.341
448.182
558.827
448.175
345.337
311.858
303.495
310.128
322.418
365.231
474.815
580.317
474.808
365.226
322.414
310.125
320.37
337.585
390.104
504.305
603.139
504.298
390.098
337.581
320.367
335.289
358.044
419.624
535.694
626.668
535.686
419.617
358.038
335.285
355.779
384.098
453.128
568.075
650.394
568.067
453.12
384.092
355.774
382.321
415.562
489.665
600.589
673.855
600.581
489.656
415.555
382.315
414.874
451.747
528.06
632.428
696.613
632.419
528.05
451.739
414.867
452.532
491.388
567.005
662.836
718.246
662.827
566.995
491.379
452.524
495.372
533.298
604.988
691.072
738.348
691.063
604.976
533.287
495.363
536.949
574.366
640.929
716.513
756.522
716.504
640.917
574.354
536.939
607.716
618.411
670.255
738.052
772.426
738.043
670.243
618.398
607.705
547.796
649.282
703.547
755.497
785.314
755.487
703.534
649.269
547.789
399.473
514.777
690.999
769.785
796.084
769.775
690.987
514.771
399.473
393.321
437.878
647.323
777.24
805.717
777.23
647.313
437.876
393.321
390.554
414.548
623.271
782.014
813.68
782.004
623.261
414.547
390.554
389.371
410.987
616.719
786.648
819.91
786.638
616.71
410.986
389.371
388.844
414.598
619.35
791.414
824.747
791.404
619.34
414.596
388.844
388.811
420.839
625.768
795.958
828.535
795.949
625.759
420.837
388.81
389.249
428.088
633.426
800.024
831.499
800.015
633.417
428.086
389.249
390.155
435.914
641.313
803.512
833.823
803.504
641.304
435.912
390.154
391.563
444.379
649.258
806.481
835.614
806.473
649.249
444.376
391.562
393.589
453.893
657.677
809.121
836.953
809.113
657.669
453.89
393.588
396.487
465.509
667.622
811.783
837.929
811.776
667.614
465.506
396.486
400.562
481.174
681.258
815.113
838.665
815.107
681.251
481.17
400.562
407.316
506.724
703.08
820.195
839.345
820.19
703.073
506.721
407.315
416.157
545.216
742.998
829.685
840.496
829.682
742.993
545.212
416.156
442.249
651.952
836.362
840.258
844.031
840.257
836.36
651.95
442.247
455.386
688.049
688.048
455.385
443.355
603.049
664.529
713.591
734.983
713.591
664.528
603.047
443.355
475.12
506.418
592.043
693.251
733.35
693.25
592.042
506.417
475.119
580.821
684.461
731.701
684.459
580.82
583.675
683.044
731.213
683.042
583.673
589.186
684.404
731.479
684.401
589.183
595.145
686.756
732.162
686.754
595.142
601.149
689.47
733.075
689.467
601.147
607.165
692.342
734.14
692.339
607.163
613.191
695.305
735.327
695.301
613.189
619.243
698.343
736.626
698.34
619.241
625.254
701.409
738.008
701.405
625.252
631.503
704.668
739.577
704.664
631.501
636.698
707.358
740.861
707.354
636.696
646.383
712.641
743.713
712.636
646.381
292.918
292.988
293.757
321.399
389.536
321.397
293.756
292.988
292.918
292.927
293.038
294.367
324.864
395.379
324.862
294.366
293.037
292.927
292.954
293.239
296.159
332.855
407.497
332.853
296.158
293.239
292.954
293.138
293.907
300.042
345.997
425.399
345.995
300.041
293.906
293.137
293.768
295.689
307.246
364.644
448.172
364.641
307.245
295.687
293.767
295.458
299.668
319.105
388.799
474.805
388.796
319.102
299.666
295.456
299.32
307.316
336.737
418.038
504.295
418.034
336.734
307.314
299.318
306.96
320.223
360.755
451.53
535.683
451.526
360.751
320.22
306.957
320.181
339.7
391.093
488.148
568.063
488.143
391.089
339.696
320.179
340.491
366.398
426.999
526.597
600.578
526.592
426.993
366.394
340.488
368.672
400.113
467.146
565.54
632.416
565.534
467.14
400.107
368.668
404.475
439.806
509.836
603.675
662.824
603.668
509.829
439.8
404.47
447.352
483.803
553.113
639.767
691.06
639.76
553.106
483.796
447.347
494.478
530.35
595.201
672.675
716.501
672.668
595.193
530.342
494.472
553.408
575.536
632.951
701.26
738.041
701.253
632.942
575.527
553.401
608.777
632.801
667.933
724.088
755.485
724.08
667.923
632.791
608.769
479.971
605.359
692.299
743.057
769.774
743.05
692.289
605.35
479.968
414.995
544.606
696.046
758.756
777.228
758.748
696.036
544.601
414.994
393.73
512.482
695.75
771.162
782.003
771.154
695.74
512.477
393.73
388.695
501.776
698.056
781.021
786.637
781.014
698.046
501.772
388.695
389.804
501.858
702.771
789.012
791.404
789.005
702.761
501.854
389.803
393.377
506.504
708.408
795.512
795.949
795.506
708.398
506.5
393.377
398.07
512.853
714.012
800.745
800.015
800.739
714.002
512.848
398.069
403.377
519.849
719.105
804.887
803.504
804.881
719.096
519.844
403.377
409.141
527.231
723.668
808.124
806.474
808.118
723.659
527.226
409.14
415.377
535.216
727.982
810.69
809.115
810.684
727.973
535.211
415.376
422.283
544.578
732.653
812.916
811.778
812.911
732.645
544.573
422.282
430.172
556.765
738.895
815.392
815.109
815.387
738.887
556.761
430.171
440.456
576.368
749.428
819.07
820.192
819.066
749.422
576.363
440.455
453.204
605.194
770.712
827.473
829.684
827.47
770.706
605.19
453.203
480.869
687.498
836.47
838.011
840.259
838.01
836.468
687.495
480.867
498.4
715.842
715.841
498.398
506.933
646.306
714.168
741.036
713.596
741.035
714.167
646.305
506.931
590.013
621.25
688.067
728.586
693.255
728.585
688.065
621.248
590.011
690.051
722.434
684.463
722.433
690.049
694.798
721.227
683.047
721.225
694.796
698.711
721.872
684.406
721.87
698.708
701.987
723.181
686.758
723.179
701.985
704.99
724.75
689.471
724.748
704.988
707.914
726.456
692.343
726.454
707.912
710.832
728.256
695.306
728.254
710.83
713.779
730.144
698.344
730.141
713.777
716.728
732.084
701.409
732.081
716.726
719.831
734.196
704.668
734.194
719.83
722.411
735.941
707.358
735.939
722.409
727.345
739.511
712.64
739.508
727.344
293.183
293.283
293.201
293.757
311.618
293.756
293.201
293.283
293.183
293.181
293.294
293.192
294.367
314.164
294.366
293.192
293.294
293.181
293.206
293.339
293.193
296.158
320.212
296.158
293.193
293.338
293.206
293.257
293.432
293.435
300.042
330.43
300.041
293.434
293.431
293.256
293.371
293.679
294.535
307.245
345.335
307.244
294.534
293.678
293.37
293.672
294.46
297.648
319.103
365.224
319.102
297.646
294.459
293.671
294.617
296.701
304.405
336.736
390.096
336.734
304.404
296.7
294.616
297.322
301.982
316.58
360.753
419.615
360.751
316.579
301.98
297.321
303.632
312.281
335.61
391.091
453.118
391.089
335.608
312.279
303.63
315.745
329.439
362.179
426.996
489.653
426.993
362.176
329.436
315.743
335.54
354.577
396.018
467.143
528.047
467.14
396.014
354.574
335.538
364.008
387.784
435.943
509.833
566.992
509.829
435.939
387.78
364.005
400.861
427.988
480.044
553.11
604.974
553.105
480.039
427.983
400.858
445.515
473.555
526.013
595.197
640.914
595.192
526.008
473.55
445.51
493.152
520.825
571.051
632.946
670.241
632.941
571.045
520.819
493.147
560.662
571.346
612.434
667.928
703.532
667.923
612.427
571.339
560.655
582.37
614.05
648.685
692.293
690.986
692.289
648.678
614.043
582.364
560.606
633.028
677.532
696.04
647.312
696.036
677.525
633.021
560.601
545.414
642.372
699.386
695.744
623.261
695.74
699.379
642.364
545.41
541.948
650.826
716.402
698.05
616.71
698.047
716.395
650.819
541.944
545.811
660.006
730.156
702.765
619.341
702.762
730.149
659.998
545.807
553.022
669.274
741.448
708.402
625.76
708.399
741.441
669.266
553.018
561.379
677.953
750.67
714.007
633.418
714.003
750.663
677.946
561.374
569.84
685.672
758.081
719.1
641.305
719.097
758.075
685.665
569.835
577.926
692.334
763.906
723.664
649.251
723.661
763.9
692.327
577.921
585.417
697.987
768.352
727.979
657.671
727.976
768.346
697.98
585.413
592.232
702.819
771.649
732.65
667.617
732.648
771.643
702.812
592.228
598.385
707.007
773.971
738.893
681.254
738.89
773.965
707.001
598.381
604.584
712.393
776.617
749.427
703.077
749.425
776.612
712.388
604.58
611.712
716.612
778.036
770.712
742.997
770.71
778.032
716.608
611.709
626.088
748.58
828.292
836.471
836.363
836.47
828.291
748.577
626.086
642.65
758.406
758.405
642.647
674.248
741.052
766.105
714.171
664.533
714.17
766.104
741.05
674.245
757.488
779.649
784.253
688.07
592.046
688.069
784.251
779.647
757.486
791.723
690.054
580.824
690.053
791.722
794.664
694.8
583.677
694.799
794.662
795.894
698.713
589.188
698.712
795.893
796.522
701.989
595.147
701.988
796.52
796.967
704.992
601.151
704.992
796.965
797.373
707.916
607.167
707.915
797.372
797.791
710.834
613.193
710.834
797.789
798.239
713.781
619.245
713.781
798.237
798.714
716.73
625.256
716.73
798.712
799.26
719.833
631.506
719.833
799.259
799.711
722.412
636.7
722.412
799.71
800.742
727.347
646.385
727.347
800.741
293.152
293.126
293.283
292.988
298.136
292.988
293.283
293.126
293.152
293.153
293.131
293.294
293.037
298.861
293.037
293.294
293.131
293.153
293.156
293.142
293.339
293.239
300.954
293.239
293.338
293.142
293.156
293.167
293.189
293.432
293.906
305.015
293.906
293.431
293.188
293.166
293.225
293.338
293.679
295.687
311.857
295.687
293.678
293.338
293.224
293.42
293.733
294.459
299.667
322.413
299.666
294.459
293.732
293.419
294.009
294.791
296.701
307.315
337.58
307.314
296.7
294.79
294.009
295.703
297.505
301.982
320.221
358.037
320.22
301.981
297.504
295.702
299.912
303.552
312.281
339.698
384.091
339.696
312.279
303.55
299.911
308.648
314.988
329.438
366.396
415.553
366.394
329.436
314.986
308.647
323.999
333.657
354.576
400.11
451.737
400.107
354.574
333.655
323.997
347.431
360.556
387.782
439.803
491.377
439.8
387.78
360.553
347.429
379.211
395.48
427.987
483.8
533.286
483.796
427.983
395.477
379.208
418.455
437.04
473.554
530.345
574.353
530.342
473.55
437.036
418.451
462.243
482.675
520.823
575.531
618.397
575.527
520.819
482.671
462.24
509.091
528.774
571.344
632.794
649.269
632.791
571.34
528.769
509.087
558.722
574.336
614.048
605.353
514.771
605.351
614.043
574.331
558.716
597.425
614.843
633.025
544.602
437.876
544.601
633.021
614.837
597.419
625.253
647.196
642.368
512.478
414.547
512.478
642.365
647.19
625.247
647.438
672.855
650.822
501.773
410.986
501.773
650.819
672.849
647.432
666.834
693.922
660.002
501.854
414.596
501.855
659.999
693.916
666.828
684.32
711.705
669.27
506.501
420.837
506.501
669.267
711.699
684.313
700.046
726.875
677.95
512.85
428.086
512.85
677.947
726.869
700.04
713.996
739.773
685.669
519.846
435.913
519.846
685.666
739.767
713.99
726.148
750.607
692.332
527.228
444.377
527.228
692.329
750.601
726.141
736.491
759.516
697.985
535.214
453.892
535.214
697.982
759.511
736.485
745.021
766.6
702.817
544.577
465.508
544.576
702.815
766.595
745.015
751.734
771.8
707.006
556.765
481.173
556.765
707.004
771.795
751.729
756.766
775.29
712.393
576.368
506.724
576.368
712.391
775.286
756.761
760.638
775.839
716.613
605.195
545.216
605.195
716.611
775.835
760.634
765.078
777.956
748.581
687.5
651.954
687.499
748.58
777.954
765.074
773.687
779.549
758.408
715.845
688.052
715.844
758.407
779.548
773.684
793.332
792.181
741.054
646.309
603.051
646.309
741.053
792.179
793.328
827.054
829.455
779.651
621.253
506.42
621.253
779.649
829.454
827.055
293.151
293.152
293.183
292.918
295.693
292.918
293.183
293.152
293.151
293.151
293.153
293.181
292.927
296.002
292.927
293.181
293.153
293.151
293.154
293.156
293.206
292.954
297.146
292.954
293.206
293.156
293.153
293.163
293.167
293.257
293.137
299.447
293.137
293.256
293.166
293.163
293.204
293.225
293.37
293.767
303.494
293.767
293.37
293.224
293.203
293.339
293.42
293.671
295.456
310.125
295.456
293.671
293.419
293.338
293.76
294.009
294.617
299.319
320.366
299.318
294.616
294.009
293.759
295.033
295.703
297.322
306.958
335.285
306.957
297.321
295.702
295.032
298.381
299.912
303.631
320.18
355.773
320.179
303.63
299.911
298.379
305.684
308.648
315.744
340.49
382.314
340.488
315.743
308.647
305.682
319.057
323.999
335.539
368.671
414.867
368.669
335.538
323.997
319.054
340.151
347.431
364.007
404.473
452.523
404.471
364.005
347.429
340.149
369.514
379.211
400.861
447.35
495.362
447.347
400.858
379.208
369.511
406.227
418.454
445.513
494.475
536.939
494.472
445.511
418.452
406.223
448.004
462.243
493.151
553.404
607.704
553.401
493.148
462.24
447.999
490.917
509.091
560.659
608.772
547.789
608.769
560.656
509.087
490.912
533.154
558.721
582.367
479.969
399.473
479.968
582.364
558.717
533.148
573.328
597.424
560.604
414.995
393.321
414.995
560.602
597.419
573.322
609.2
625.252
545.412
393.731
390.554
393.731
545.41
625.248
609.194
640.469
647.436
541.946
388.695
389.371
388.695
541.945
647.432
640.463
667.869
666.832
545.808
389.803
388.844
389.804
545.808
666.829
667.863
692.108
684.318
553.019
393.377
388.811
393.377
553.019
684.314
692.102
713.631
700.044
561.376
398.069
389.249
398.069
561.376
700.041
713.625
732.686
713.995
569.837
403.377
390.155
403.377
569.837
713.991
732.68
749.432
726.146
577.923
409.141
391.563
409.141
577.923
726.142
749.426
764.003
736.489
585.415
415.377
393.589
415.377
585.415
736.486
763.998
776.533
745.019
592.231
422.283
396.487
422.283
592.231
745.016
776.528
787.156
751.733
598.384
430.172
400.563
430.173
598.384
751.73
787.151
795.992
756.765
604.584
440.457
407.316
440.457
604.583
756.762
795.988
803.15
760.637
611.712
453.205
416.158
453.206
611.712
760.635
803.146
808.817
765.077
626.089
480.87
442.25
480.87
626.089
765.076
808.813
814.883
773.687
642.651
498.402
455.387
498.402
642.651
773.686
814.88
823.416
793.331
674.249
506.935
443.357
506.935
674.249
793.33
823.413
837.044
827.055
757.489
590.016
475.122
590.015
757.488
827.055
837.048
)
;

boundaryField
{
    injectionXMinus
    {
        type            uniformFixedValue;
        uniformValue    uniform 400;
        value           uniform 400;
    }
    injectionXPlus
    {
        type            uniformFixedValue;
        uniformValue    uniform 400;
        value           uniform 400;
    }
    injectionYMinus
    {
        type            uniformFixedValue;
        uniformValue    uniform 400;
        value           uniform 400;
    }
    injectionYPlus
    {
        type            uniformFixedValue;
        uniformValue    uniform 400;
        value           uniform 400;
    }
    inletXMinus
    {
        type            uniformFixedValue;
        uniformValue    uniform 293.15;
        value           uniform 293.15;
    }
    inletXPlus
    {
        type            uniformFixedValue;
        uniformValue    uniform 293.15;
        value           uniform 293.15;
    }
    inletYMinus
    {
        type            uniformFixedValue;
        uniformValue    uniform 293.15;
        value           uniform 293.15;
    }
    inletYPlus
    {
        type            uniformFixedValue;
        uniformValue    uniform 293.15;
        value           uniform 293.15;
    }
    outlet
    {
        type            zeroGradient;
    }
    valve
    {
        type            zeroGradient;
    }
    walls
    {
        type            zeroGradient;
    }
}


// ************************************************************************* //
