/*--------------------------------*- C++ -*----------------------------------*\
  =========                 |
  \\      /  F ield         | OpenFOAM: The Open Source CFD Toolbox
   \\    /   O peration     | Website:  https://openfoam.org
    \\  /    A nd           | Version:  6
     \\/     M anipulation  |
\*---------------------------------------------------------------------------*/
FoamFile
{
    version     2.0;
    format      ascii;
    class       volScalarField;
    location    "0.4";
    object      T;
}
// * * * * * * * * * * * * * * * * * * * * * * * * * * * * * * * * * * * * * //

dimensions      [0 0 0 1 0 0 0];

internalField   nonuniform List<scalar> 
3029
(
277.841
271.498
303.994
245.765
311.015
245.765
303.994
271.498
277.841
314.604
319.569
341.939
271.138
335.529
271.138
341.939
319.569
314.604
255.96
262.166
295.185
265.182
321.61
265.182
295.185
262.166
255.96
258.45
254.154
289.839
265.109
309.509
265.109
289.838
254.153
258.449
267.577
256.902
289.131
266.815
303.179
266.815
289.13
256.901
267.576
273.712
260.467
288.789
268.634
300.804
268.633
288.787
260.466
273.711
276.906
263.088
288.529
270.47
300.989
270.47
288.527
263.087
276.905
278.446
264.971
288.491
272.636
303.138
272.635
288.488
264.969
278.444
279.359
266.652
288.923
275.547
307.132
275.546
288.92
266.65
279.357
280.388
268.679
290.177
279.664
313.051
279.662
290.174
268.676
280.386
282.141
271.584
292.691
285.476
321.177
285.474
292.687
271.58
282.138
285.163
275.885
296.924
293.43
331.415
293.428
296.92
275.881
285.16
289.947
282.08
303.338
304.265
346.002
304.262
303.333
282.076
289.943
296.911
290.514
312.091
317.748
359.311
317.745
312.086
290.509
296.907
306.506
301.645
323.629
337.483
415.011
337.48
323.623
301.639
306.502
319.277
315.302
334.436
343.822
393.445
343.818
334.43
315.295
319.272
337.173
336.467
355.618
323.901
468.457
323.897
355.611
336.46
337.167
358.929
362.645
375.694
304.582
496.876
304.578
375.687
362.637
358.923
380.892
385.979
387.596
298.933
463.09
298.93
387.589
385.971
380.885
403.047
408.369
402.531
308.93
474.305
308.926
402.524
408.361
403.039
426.008
431.295
420.754
323.492
481.109
323.488
420.746
431.286
426
449.976
455.096
440.856
339.058
483.877
339.054
440.849
455.086
449.967
474.787
479.588
461.802
354.844
485.552
354.84
461.795
479.577
474.777
500.075
504.389
482.905
370.759
487.625
370.755
482.898
504.378
500.066
525.372
529.032
503.633
386.825
490.684
386.821
503.626
529.022
525.361
550.136
552.958
523.347
402.97
494.94
402.966
523.339
552.947
550.125
573.822
575.556
541.565
419.356
500.911
419.353
541.558
575.545
573.811
596.042
595.885
556.211
434.582
507.46
434.579
556.203
595.874
596.031
617.449
614.212
571.307
453.541
521.173
453.538
571.301
614.202
617.438
640.601
630.132
572.325
457.77
520.561
457.767
572.319
630.122
640.589
675.926
662.545
624.642
529.85
603.502
529.847
624.636
662.536
675.914
722.962
713.516
725.115
635.733
711.096
635.729
725.109
713.507
722.95
767.047
752.22
670.428
581.34
625.594
581.337
670.422
752.211
767.034
863.378
872.027
527.164
275.614
245.078
275.612
527.16
872.02
863.37
271.498
253.676
314.022
256.786
261.669
256.786
314.022
253.676
271.498
319.569
349.145
415.001
301.197
277.202
301.197
415
349.144
319.569
262.166
288.3
359.291
303.397
280.478
303.397
359.29
288.299
262.165
254.154
261.632
325.222
298.824
280.771
298.824
325.221
261.631
254.153
256.902
254.969
310.133
295.6
281.698
295.599
310.132
254.967
256.9
260.467
255.057
303.985
294.3
284.009
294.299
303.983
255.055
260.465
263.088
256.893
301.679
294.516
287.824
294.516
301.676
256.89
263.086
264.971
259.143
301.22
296.079
293.241
296.078
301.217
259.14
264.968
266.652
261.717
302.022
299.096
300.422
299.095
302.019
261.713
266.649
268.679
264.916
304.104
303.832
309.543
303.831
304.1
264.912
268.675
271.584
269.172
307.739
310.613
320.814
310.612
307.734
269.168
271.579
275.885
274.94
313.281
319.718
334.238
319.715
313.275
274.935
275.88
282.08
282.671
321.017
331.443
350.631
331.44
321.012
282.665
282.075
290.514
292.645
331.009
345.428
367.313
345.425
331.003
292.638
290.508
301.645
305.003
342.892
361.754
397.405
361.75
342.885
304.996
301.639
315.301
319.589
355.243
370.835
379.453
370.831
355.235
319.582
315.294
336.467
338.52
368.796
370.451
511.454
370.447
368.788
338.512
336.459
362.644
359.979
381.294
374.763
687.18
374.758
381.285
359.969
362.636
385.979
380.55
394.362
384.859
697.608
384.853
394.353
380.541
385.969
408.369
401.5
410.926
402.407
701.57
402.401
410.918
401.49
408.359
431.295
423.61
430.38
423.281
707.285
423.274
430.372
423.599
431.284
455.095
446.837
451.54
445.186
713.968
445.179
451.531
446.826
455.084
479.587
470.828
473.554
467.249
721.078
467.241
473.545
470.817
479.575
504.388
495.155
495.849
489.182
728.275
489.174
495.84
495.143
504.376
529.032
519.381
518.041
510.976
735.52
510.969
518.032
519.369
529.02
552.957
542.93
539.654
532.817
742.83
532.81
539.645
542.918
552.945
575.555
565.424
560.858
554.997
750.272
554.99
560.85
565.413
575.543
595.884
584.324
578.017
577.54
756.387
577.533
578.009
584.312
595.873
614.212
602.321
602.93
598.639
759.308
598.633
602.921
602.31
614.2
630.132
591.878
551.425
586.411
707.219
586.407
551.417
591.868
630.121
662.546
610.138
770.143
674.593
788.04
674.59
770.136
610.129
662.535
713.516
644.443
855.022
730.47
838.929
730.466
855.016
644.435
713.506
752.221
713.077
893.708
853.977
937.326
853.973
893.701
713.068
752.211
872.028
989.544
1042.83
919.173
866.551
919.167
1042.82
989.537
872.021
303.994
314.022
345.466
301.363
264.761
301.363
345.465
314.022
303.994
341.939
415.001
447.503
346.251
275.278
346.251
447.502
415
341.939
295.185
359.29
428.889
356.554
281.206
356.554
428.887
359.289
295.184
289.839
325.222
399.438
353.711
285.123
353.71
399.436
325.22
289.838
289.131
310.133
379.885
349.378
289.563
349.378
379.882
310.131
289.129
288.788
303.985
368.714
346.774
295.568
346.774
368.711
303.982
288.786
288.529
301.679
362.591
346.426
303.473
346.426
362.587
301.676
288.526
288.49
301.22
359.565
348.343
313.38
348.342
359.56
301.216
288.487
288.923
302.022
358.826
352.544
325.322
352.542
358.822
302.017
288.919
290.177
304.104
360.183
359.096
339.292
359.094
360.177
304.099
290.173
292.69
307.738
363.711
368.069
355.25
368.066
363.704
307.733
292.686
296.923
313.28
369.552
379.456
373.054
379.453
369.545
313.274
296.918
303.337
321.017
377.769
393.137
392.641
393.134
377.762
321.01
303.331
312.09
331.008
388.146
408.619
413.05
408.615
388.138
331.001
312.083
323.627
342.891
400.078
425.157
436.035
425.152
400.069
342.883
323.62
334.435
355.242
412.299
440.023
450.594
440.018
412.29
355.233
334.427
355.616
368.795
426.344
455.409
493.695
455.403
426.334
368.785
355.607
375.693
381.292
441.447
472.354
576.361
472.348
441.436
381.282
375.683
387.594
394.36
456.201
488.71
620.686
488.703
456.19
394.35
387.584
402.53
410.925
472.548
507.26
649.497
507.254
472.538
410.914
402.519
420.752
430.379
490.764
527.733
672.98
527.726
490.753
430.368
420.742
440.855
451.539
510.269
549.188
694.332
549.181
510.257
451.528
440.844
461.801
473.553
530.467
570.954
714.438
570.946
530.455
473.541
461.79
482.904
495.849
550.964
592.719
733.559
592.712
550.952
495.837
482.893
503.632
518.041
571.495
614.422
751.758
614.414
571.484
518.029
503.621
523.347
539.653
592.286
636.755
769.556
636.746
592.275
539.642
523.335
541.566
560.859
612.872
659.607
786.672
659.599
612.861
560.847
541.555
556.212
578.018
639.943
692.762
810.775
692.755
639.932
578.006
556.201
571.309
602.93
666.245
718.779
827.415
718.773
666.235
602.919
571.299
572.327
551.426
827.968
937.659
1005.94
937.653
827.957
551.416
572.317
624.645
770.145
1663.34
1030.37
1160.13
1030.37
1663.34
770.137
624.636
725.118
855.023
855.017
725.109
670.432
893.709
583.158
561.271
663.779
561.269
583.154
893.702
670.423
527.167
1042.83
836.331
797.367
802.915
797.362
836.325
1042.82
527.162
754.874
734.985
736.152
734.981
754.868
761.714
729.71
729.565
729.706
761.709
774.188
734.037
731.708
734.033
774.183
782.491
738.858
734.845
738.854
782.486
788.143
743.358
738.211
743.354
788.138
792.485
747.53
741.606
747.526
792.48
796.238
751.498
744.993
751.495
796.233
799.708
755.344
748.365
755.341
799.704
802.991
759.07
751.686
759.067
802.986
806.206
762.808
755.083
762.805
806.202
808.916
765.947
757.932
765.944
808.913
813.518
771.456
763.08
771.454
813.514
245.765
256.786
301.363
312.026
305.705
312.024
301.361
256.785
245.764
271.137
301.197
346.25
332.931
311.335
332.928
346.248
301.196
271.137
265.182
303.396
356.552
342.895
316.243
342.893
356.55
303.395
265.182
265.109
298.823
353.709
346.324
321.814
346.322
353.707
298.822
265.108
266.814
295.598
349.376
348.615
329.445
348.613
349.374
295.597
266.813
268.633
294.298
346.772
352.239
339.561
352.237
346.769
294.296
268.632
270.469
294.515
346.424
358.037
352.069
358.034
346.42
294.512
270.467
272.634
296.077
348.341
366.217
366.707
366.214
348.337
296.074
272.632
275.546
299.094
352.541
376.768
383.189
376.764
352.536
299.09
275.543
279.662
303.83
359.094
389.587
401.246
389.583
359.088
303.826
279.658
285.474
310.611
368.066
404.51
420.619
404.506
368.06
310.606
285.47
293.428
319.715
379.453
421.302
441.034
421.297
379.447
319.709
293.423
304.263
331.44
393.134
439.638
462.188
439.633
393.127
331.434
304.257
317.746
345.426
408.616
459.019
483.666
459.014
408.608
345.419
317.74
337.481
361.751
425.154
478.898
505.314
478.892
425.145
361.743
337.475
343.82
370.832
440.02
498.596
526.983
498.589
440.01
370.824
343.812
323.898
370.448
455.406
520.842
554.241
520.835
455.395
370.44
323.892
304.58
374.76
472.351
544.099
585.547
544.092
472.34
374.751
304.575
298.931
384.855
488.707
564.411
611.309
564.403
488.696
384.847
298.927
308.928
402.404
507.257
583.54
633.433
583.531
507.246
402.395
308.924
323.49
423.278
527.73
602.59
653.883
602.581
527.718
423.269
323.485
339.056
445.183
549.185
621.701
673.466
621.693
549.173
445.173
339.051
354.842
467.245
570.951
640.748
692.418
640.74
570.939
467.235
354.837
370.758
489.178
592.717
659.675
710.861
659.667
592.705
489.168
370.752
386.824
510.973
614.419
678.622
729.01
678.614
614.407
510.962
386.818
402.969
532.814
636.752
698.329
747.55
698.321
636.74
532.803
402.963
419.356
554.994
659.604
719.827
767.519
719.82
659.593
554.984
419.35
434.582
577.538
692.761
749.48
793.709
749.473
692.75
577.527
434.576
453.542
598.637
718.777
784.631
824.47
784.625
718.767
598.628
453.536
457.771
586.411
937.658
909.983
910.236
909.977
937.648
586.403
457.766
529.852
674.593
1030.37
568.162
621.711
568.161
1030.36
674.587
529.847
635.735
730.47
730.464
635.729
581.344
853.979
561.272
436.225
508.37
436.225
561.27
853.972
581.338
275.617
919.178
797.37
722.319
726.227
722.318
797.364
919.169
275.614
734.988
700.858
709.851
700.857
734.981
729.713
683.109
690.338
683.106
729.706
734.04
678.6
682.478
678.597
734.033
738.861
679.474
680.704
679.472
738.854
743.361
682.349
681.582
682.347
743.354
747.533
685.831
683.448
685.828
747.526
751.501
689.448
685.644
689.446
751.495
755.347
693.06
687.939
693.058
755.341
759.073
696.594
690.229
696.592
759.067
762.81
700.159
692.573
700.157
762.805
765.95
703.129
694.519
703.127
765.944
771.459
708.449
698.131
708.448
771.454
311.013
261.668
264.759
305.703
364.646
305.699
264.758
261.667
311.013
335.528
277.201
275.277
311.333
367.29
311.329
275.275
277.199
335.527
321.609
280.477
281.204
316.241
370.5
316.237
281.202
280.475
321.608
309.507
280.769
285.121
321.812
375.727
321.808
285.119
280.767
309.505
303.177
281.696
289.561
329.443
383.833
329.439
289.558
281.694
303.175
300.802
284.007
295.565
339.558
394.749
339.554
295.563
284.005
300.8
300.987
287.821
303.471
352.066
408.013
352.061
303.467
287.819
300.984
303.136
293.238
313.377
366.703
423.116
366.698
313.374
293.235
303.132
307.129
300.419
325.318
383.185
439.624
383.18
325.314
300.415
307.126
313.048
309.54
339.288
401.242
457.2
401.237
339.283
309.536
313.044
321.174
320.81
355.246
420.616
475.574
420.61
355.24
320.806
321.17
331.411
334.234
373.049
441.03
494.503
441.024
373.043
334.229
331.407
345.998
350.627
392.636
462.184
513.756
462.177
392.63
350.621
345.993
359.306
367.309
413.045
483.663
533.113
483.656
413.038
367.303
359.3
415.006
397.401
436.03
505.311
552.693
505.303
436.022
397.394
414.999
393.44
379.449
450.589
526.98
573.328
526.972
450.581
379.442
393.432
468.455
511.449
493.69
554.238
599.494
554.23
493.68
511.441
468.452
496.876
687.175
576.356
585.544
627.505
585.535
576.345
687.167
496.875
463.09
697.603
620.68
611.305
650.201
611.296
620.669
697.596
463.09
474.305
701.565
649.491
633.429
668.965
633.42
649.479
701.558
474.305
481.108
707.281
672.975
653.88
685.919
653.871
672.963
707.273
481.108
483.877
713.966
694.327
673.463
702.113
673.453
694.316
713.957
483.876
485.552
721.076
714.433
692.415
717.915
692.406
714.422
721.067
485.551
487.626
728.273
733.555
710.859
733.49
710.849
733.544
728.265
487.624
490.685
735.519
751.755
729.009
749.12
728.999
751.743
735.51
490.683
494.941
742.83
769.553
747.548
765.533
747.54
769.542
742.822
494.939
500.913
750.273
786.67
767.518
783.981
767.51
786.659
750.265
500.911
507.463
756.389
810.774
793.708
808.253
793.701
810.763
756.381
507.461
521.177
759.311
827.415
824.471
837.774
824.464
827.405
759.303
521.175
520.565
707.223
1005.94
910.237
891.814
910.232
1005.93
707.216
520.563
603.508
788.043
1160.13
621.712
695.772
621.71
1160.13
788.038
603.505
711.102
838.932
838.926
711.1
625.601
937.335
663.783
508.37
476.724
508.368
663.78
937.33
625.599
245.082
866.56
802.922
726.231
629.256
726.228
802.918
866.556
245.081
736.16
709.855
638.215
709.852
736.155
729.572
690.343
627.005
690.34
729.568
731.716
682.482
620.598
682.479
731.712
734.853
680.709
618.887
680.706
734.849
738.219
681.586
619.677
681.584
738.214
741.614
683.453
621.513
683.45
741.61
745.001
685.649
623.724
685.647
744.996
748.373
687.944
626.051
687.942
748.369
751.694
690.234
628.371
690.232
751.69
755.092
692.577
630.753
692.576
755.088
757.94
694.524
632.702
694.522
757.936
763.089
698.136
636.424
698.134
763.085
245.765
256.786
301.361
312.023
305.698
312.022
301.361
256.785
245.765
271.138
301.197
346.249
332.927
311.328
332.927
346.249
301.196
271.137
265.182
303.396
356.552
342.892
316.236
342.892
356.551
303.395
265.181
265.108
298.823
353.708
346.32
321.807
346.319
353.707
298.822
265.108
266.814
295.598
349.375
348.611
329.437
348.61
349.374
295.597
266.813
268.632
294.297
346.771
352.235
339.552
352.234
346.77
294.296
268.631
270.468
294.513
346.423
358.032
352.06
358.031
346.421
294.512
270.467
272.633
296.075
348.339
366.212
366.697
366.211
348.336
296.073
272.632
275.544
299.092
352.539
376.762
383.178
376.76
352.536
299.089
275.542
279.66
303.828
359.091
389.58
401.235
389.578
359.088
303.825
279.657
285.472
310.608
368.062
404.502
420.608
404.5
368.059
310.605
285.469
293.425
319.712
379.449
421.294
441.022
421.291
379.445
319.708
293.422
304.259
331.436
393.129
439.629
462.175
439.627
393.125
331.433
304.256
317.741
345.421
408.61
459.01
483.654
459.007
408.606
345.417
317.738
337.476
361.746
425.147
478.888
505.301
478.885
425.142
361.742
337.472
343.814
370.826
440.013
498.585
526.97
498.581
440.008
370.822
343.81
323.894
370.442
455.398
520.83
554.228
520.827
455.393
370.438
323.89
304.576
374.754
472.343
544.088
585.533
544.084
472.338
374.75
304.573
298.928
384.849
488.699
564.399
611.295
564.395
488.693
384.845
298.926
308.925
402.398
507.249
583.528
633.419
583.524
507.243
402.393
308.922
323.487
423.272
527.722
602.578
653.869
602.574
527.716
423.267
323.484
339.052
445.177
549.177
621.691
673.452
621.685
549.171
445.173
339.05
354.839
467.24
570.943
640.738
692.405
640.732
570.937
467.235
354.836
370.755
489.174
592.71
659.666
710.848
659.66
592.703
489.169
370.752
386.821
510.969
614.413
678.614
728.999
678.609
614.407
510.964
386.818
402.966
532.811
636.747
698.321
747.54
698.316
636.741
532.806
402.963
419.354
554.993
659.601
719.821
767.51
719.816
659.595
554.988
419.351
434.581
577.538
692.759
749.475
793.702
749.47
692.752
577.532
434.577
453.541
598.639
718.777
784.628
824.465
784.623
718.771
598.634
453.538
457.771
586.413
937.66
909.98
910.232
909.976
937.653
586.409
457.769
529.853
674.597
1030.37
568.162
621.712
568.16
1030.36
674.593
529.85
635.736
730.474
730.47
635.733
581.344
853.982
561.276
436.23
508.374
436.23
561.274
853.978
581.341
275.615
919.178
797.373
722.327
726.235
722.325
797.369
919.173
275.614
734.989
700.866
709.857
700.863
734.985
729.714
683.115
690.344
683.113
729.71
734.041
678.606
682.484
678.604
734.037
738.863
679.48
680.71
679.478
738.858
743.363
682.355
681.588
682.354
743.358
747.535
685.837
683.454
685.835
747.531
751.503
689.454
685.651
689.453
751.499
755.35
693.067
687.946
693.065
755.346
759.075
696.601
690.236
696.6
759.071
762.813
700.166
692.58
700.164
762.809
765.953
703.136
694.527
703.134
765.949
771.462
708.456
698.138
708.455
771.459
303.994
314.021
345.464
301.36
264.757
301.36
345.464
314.021
303.994
341.939
414.999
447.501
346.248
275.274
346.248
447.501
414.999
341.939
295.184
359.289
428.886
356.55
281.201
356.55
428.886
359.289
295.184
289.837
325.22
399.435
353.706
285.118
353.707
399.434
325.22
289.837
289.129
310.13
379.881
349.373
289.557
349.373
379.88
310.13
289.129
288.786
303.981
368.709
346.769
295.562
346.769
368.708
303.98
288.785
288.526
301.674
362.584
346.42
303.466
346.42
362.583
301.674
288.525
288.486
301.215
359.558
348.336
313.372
348.336
359.556
301.214
288.486
288.918
302.016
358.819
352.535
325.313
352.535
358.817
302.015
288.917
290.172
304.097
360.174
359.087
339.282
359.086
360.172
304.096
290.17
292.685
307.731
363.701
368.058
355.239
368.058
363.699
307.729
292.683
296.917
313.272
369.542
379.445
373.041
379.444
369.539
313.27
296.916
303.33
321.008
377.758
393.124
392.628
393.124
377.755
321.006
303.328
312.083
330.999
388.134
408.606
413.036
408.605
388.131
330.997
312.081
323.62
342.881
400.065
425.142
436.02
425.142
400.063
342.879
323.618
334.427
355.231
412.286
440.008
450.579
440.008
412.283
355.228
334.424
355.608
368.784
426.33
455.393
493.678
455.392
426.328
368.781
355.604
375.684
381.282
441.432
472.338
576.343
472.337
441.43
381.278
375.68
387.585
394.349
456.186
488.693
620.667
488.692
456.184
394.346
387.581
402.52
410.914
472.534
507.244
649.478
507.243
472.532
410.91
402.516
420.743
430.368
490.75
527.717
672.962
527.715
490.747
430.364
420.738
440.846
451.528
510.255
549.172
694.315
549.17
510.252
451.524
440.841
461.792
473.542
530.453
570.938
714.421
570.936
530.451
473.538
461.787
482.895
495.838
550.951
592.705
733.543
592.703
550.948
495.834
482.89
503.623
518.031
571.483
614.408
751.743
614.406
571.48
518.026
503.618
523.338
539.644
592.275
636.742
769.542
636.74
592.272
539.639
523.333
541.557
560.85
612.862
659.596
786.659
659.594
612.86
560.845
541.552
556.204
578.01
639.935
692.754
810.764
692.751
639.932
578.006
556.198
571.302
602.924
666.238
718.773
827.407
718.77
666.236
602.92
571.297
572.32
551.421
827.966
937.655
1005.94
937.653
827.961
551.418
572.316
624.639
770.143
1663.35
1030.37
1160.13
1030.37
1663.34
770.141
624.636
725.113
855.024
855.022
725.11
670.428
893.71
583.159
561.275
663.783
561.274
583.16
893.707
670.424
527.166
1042.84
836.334
797.372
802.921
797.371
836.333
1042.83
527.164
754.877
734.988
736.159
734.987
754.874
761.719
729.713
729.572
729.712
761.715
774.193
734.04
731.716
734.039
774.189
782.496
738.862
734.853
738.861
782.492
788.148
743.362
738.218
743.361
788.144
792.49
747.534
741.614
747.533
792.486
796.244
751.503
745.001
751.501
796.239
799.714
755.349
748.373
755.348
799.71
802.997
759.075
751.694
759.074
802.992
806.212
762.813
755.092
762.812
806.208
808.923
765.952
757.941
765.951
808.919
813.525
771.462
763.089
771.461
813.521
271.498
253.676
314.022
256.785
261.666
256.785
314.021
253.676
271.497
319.568
349.144
415
301.196
277.199
301.196
414.999
349.143
319.568
262.165
288.299
359.289
303.395
280.475
303.395
359.289
288.299
262.165
254.153
261.631
325.22
298.822
280.767
298.822
325.219
261.63
254.153
256.9
254.967
310.13
295.596
281.693
295.596
310.129
254.966
256.9
260.465
255.054
303.981
294.295
284.004
294.295
303.98
255.054
260.465
263.085
256.889
301.675
294.511
287.818
294.511
301.673
256.888
263.085
264.968
259.138
301.215
296.073
293.235
296.073
301.213
259.138
264.967
266.648
261.712
302.016
299.089
300.415
299.089
302.014
261.711
266.648
268.674
264.91
304.097
303.825
309.535
303.824
304.096
264.909
268.673
271.578
269.166
307.731
310.605
320.805
310.604
307.729
269.165
271.577
275.879
274.933
313.272
319.708
334.228
319.707
313.27
274.931
275.878
282.074
282.663
321.008
331.433
350.62
331.432
321.006
282.662
282.072
290.507
292.636
330.999
345.417
367.302
345.417
330.997
292.634
290.505
301.637
304.994
342.881
361.742
397.393
361.741
342.878
304.992
301.636
315.293
319.579
355.231
370.822
379.441
370.821
355.228
319.577
315.291
336.457
338.509
368.783
370.438
511.44
370.438
368.781
338.507
336.455
362.634
359.967
381.28
374.751
687.167
374.749
381.278
359.964
362.632
385.968
380.538
394.348
384.846
697.596
384.845
394.346
380.535
385.965
408.358
401.488
410.912
402.394
701.558
402.393
410.91
401.485
408.355
431.283
423.597
430.366
423.268
707.273
423.267
430.364
423.594
431.28
455.084
446.824
451.526
445.174
713.958
445.172
451.524
446.821
455.08
479.576
470.816
473.54
467.236
721.068
467.234
473.538
470.812
479.572
504.377
495.142
495.836
489.17
728.265
489.168
495.834
495.139
504.372
529.021
519.368
518.029
510.965
735.511
510.963
518.027
519.365
529.017
552.947
542.918
539.642
532.807
742.823
532.805
539.64
542.915
552.943
575.545
565.414
560.848
554.988
750.267
554.987
560.846
565.41
575.541
595.876
584.315
578.009
577.533
756.384
577.531
578.007
584.312
595.872
614.204
602.314
602.923
598.634
759.306
598.633
602.921
602.311
614.2
630.126
591.872
551.42
586.41
707.219
586.409
551.419
591.87
630.122
662.541
610.134
770.144
674.594
788.041
674.593
770.142
610.132
662.538
713.513
644.441
855.025
730.471
838.93
730.47
855.023
644.439
713.511
752.218
713.075
893.71
853.98
937.334
853.979
893.709
713.074
752.216
872.031
989.55
1042.84
919.178
866.561
919.176
1042.83
989.548
872.03
277.841
271.498
303.994
245.765
311.012
245.765
303.994
271.497
277.841
314.604
319.569
341.939
271.137
335.527
271.137
341.939
319.569
314.604
255.96
262.165
295.184
265.181
321.607
265.181
295.184
262.165
255.96
258.449
254.153
289.837
265.107
309.505
265.108
289.837
254.153
258.449
267.576
256.9
289.129
266.813
303.175
266.813
289.129
256.9
267.575
273.711
260.465
288.786
268.631
300.8
268.631
288.785
260.465
273.711
276.904
263.085
288.526
270.467
300.984
270.467
288.525
263.085
276.904
278.443
264.968
288.486
272.631
303.132
272.631
288.485
264.967
278.443
279.356
266.648
288.918
275.542
307.125
275.542
288.917
266.647
279.355
280.385
268.674
290.171
279.657
313.043
279.657
290.17
268.673
280.384
282.137
271.578
292.684
285.469
321.169
285.469
292.683
271.577
282.136
285.159
275.879
296.917
293.422
331.406
293.422
296.915
275.878
285.158
289.942
282.074
303.329
304.256
345.993
304.256
303.328
282.072
289.94
296.906
290.507
312.082
317.738
359.3
317.738
312.08
290.505
296.904
306.5
301.637
323.619
337.473
414.999
337.472
323.617
301.636
306.498
319.27
315.293
334.425
343.811
393.431
343.81
334.424
315.291
319.268
337.165
336.457
355.606
323.891
468.452
323.89
355.604
336.455
337.163
358.921
362.634
375.682
304.574
496.875
304.573
375.68
362.632
358.919
380.883
385.968
387.583
298.927
463.09
298.925
387.581
385.965
380.881
403.037
408.357
402.518
308.924
474.304
308.922
402.517
408.355
403.035
425.998
431.283
420.741
323.485
481.108
323.484
420.739
431.28
425.995
449.966
455.083
440.843
339.051
483.876
339.05
440.842
455.08
449.962
474.777
479.575
461.789
354.837
485.551
354.836
461.788
479.572
474.773
500.065
504.376
482.892
370.753
487.625
370.751
482.891
504.372
500.062
525.361
529.02
503.621
386.819
490.684
386.817
503.619
529.017
525.358
550.126
552.946
523.335
402.964
494.94
402.963
523.334
552.943
550.122
573.813
575.544
541.555
419.352
500.911
419.351
541.554
575.542
573.809
596.033
595.875
556.202
434.579
507.463
434.578
556.2
595.872
596.03
617.441
614.204
571.301
453.539
521.177
453.538
571.299
614.201
617.438
640.594
630.125
572.319
457.77
520.565
457.769
572.318
630.123
640.591
675.92
662.54
624.639
529.851
603.508
529.85
624.638
662.539
675.917
722.957
713.512
725.113
635.734
711.103
635.733
725.112
713.511
722.955
767.042
752.218
670.428
581.343
625.602
581.343
670.427
752.216
767.04
863.382
872.032
527.167
275.615
245.083
275.615
527.166
872.032
863.382
)
;

boundaryField
{
    injectionXMinus
    {
        type            fixedValue;
        value           uniform 400;
    }
    injectionXPlus
    {
        type            fixedValue;
        value           uniform 400;
    }
    injectionYMinus
    {
        type            fixedValue;
        value           uniform 400;
    }
    injectionYPlus
    {
        type            fixedValue;
        value           uniform 400;
    }
    inletXMinus
    {
        type            fixedValue;
        value           uniform 293.15;
    }
    inletXPlus
    {
        type            fixedValue;
        value           uniform 293.15;
    }
    inletYMinus
    {
        type            fixedValue;
        value           uniform 293.15;
    }
    inletYPlus
    {
        type            fixedValue;
        value           uniform 293.15;
    }
    outlet
    {
        type            zeroGradient;
    }
    valve
    {
        type            zeroGradient;
    }
    walls
    {
        type            zeroGradient;
    }
}


// ************************************************************************* //
